1 : ../sto3g.inp
2 : 00
3 : 1
4 : 4
----- GAMESS execution script 'rungms' -----
This job is running on host coupled.cem.msu.edu
under operating system Linux at Fri Dec 15 17:45:43 EST 2023
Available scratch disk space (Kbyte units) at beginning of the job is
Filesystem      1K-blocks      Used  Available Use% Mounted on
/dev/sde2      2619147912 347030920 2139065192  14% /scratch
GAMESS temporary binary files will be written to /scratch/dengtia4/gamess/../sto3g.inp
GAMESS supplementary output files will be written to /home2/dengtia4/cmse890_workflow/modified_files/script
Copying input file /home2/dengtia4/cmse890_workflow/modified_files/sto3g.inp to your run's scratch directory...

 Distributed Data Interface kickoff program.
 Initiating 1 compute processes on 1 nodes to run the following command:
 /home2/dengtia4/gamess_May09-2023/gamess.00.x sto3g 

          *******************************************************
          *                                                     *
          *          GAMESS VERSION = 30 SEP 2022 (R2)          *
          *                                                     *
          *              doi.org/10.1063/5.0005188              *
          *                                                     *
          **************** 64 BIT LINUX VERSION *****************
 
           git commit: 908958b64642651f98c8f49c16e5c9f9b1fbb9b3
 

  GAMESS HAS BEEN MADE POSSIBLE WITH IMPORTANT CONTRIBUTIONS FROM
  THE FOLLOWING INDIVIDUALS (IN ALPHABETICAL ORDER):

     IVANA ADAMOVIC, CHRISTINE AIKENS, TOMOKO AKAMA,
     MELISA ALKAN, YURI ALEXEEV, YURIKO AOKI, POOJA ARORA,
     TOSHIO ASADA, ANDREY ASADCHEV, KIM K. BALDRIDGE,
     PRADIPTA BANDYOPADHYAY, TAYLOR A. BARNES, MARIA BARYSZ,
     ROB BELL, JONATHAN BENTZ, COLLEEN BERTONI,
     JERRY A. BOATZ, BRETT BODE, KURT BRORSEN, KURT R. BRORSEN,
     LAIMUTIS BYTAUTAS, CALEB CARLIN, LAURA CARRINGTON,
     GALINA CHABAN, BENOIT CHAMPAGNE, WEI CHEN, MAHITO CHIBA,
     DAN CHIPMAN, CHEOL HO CHOI, TANNER CULPITT,
     DIPAYAN DATTA, PAUL DAY, ALBERT DEFUSCO,
     NUWAN DESILVA, J. EMILIANO DEUSTUA,
     TIM DUDLEY, MICHEL DUPUIS, STEVEN T. ELBERT,
     DMITRI FEDOROV, KATHERINE FERRERAS, MICHAEL FILATOV,
     ALEX FINDLATER,GRAHAM FLETCHER, MARK FREITAG,
     CHRISTIAN FRIEDL, DAVID GARMER, 
     IGOR S. GERASIMOV, KURT GLAESEMANN,
     MARK S. GORDON, JEFFREY R. GOUR, FENG LONG GU,
     EMILIE B. GUIDEZ, ANASTASIA GUNINA, SHARON HAMMES-SCHIFFER,
     MASATAKE HARUTA, KIMIHIKO HIRAO, YASUHIRO IKABATA,
     TZVETELIN IORDANOV, STEPHAN IRLE, KAZUYA ISHIMURA,
     JOE IVANIC, FRANK JENSEN, JAN H. JENSEN, VISVALDAS KAIRYS,
     MUNEAKI KAMIYA, MICHIO KATOUDA, NAOAKI KAWAKAMI, DAN KEMP,
     BERNARD KIRTMAN, KAZUO KITAURA, MARIUSZ KLOBUKOWSKI,
     MASATO KOBAYASHI, KONSTANTIN KOMAROV, PRAKASHAN KORAMBATH,
     JACEK KORCHOWIEC, SHIRO KOSEKI, KAROL KOWALSKI,
     JIMMY KROMANN, STANISLAW A. KUCHARSKI, HENRY KURTZ,
     SAROM SOK LEANG, SEUNGHOON LEE, HUI LI, SHUHUA LI, WEI LI,
     JESSE J. LUTZ, ALEKSANDR O. LYKHIN,
     ILIAS MAGOULAS, MARCIN MAKOWSKI,
     JOANI MATO, NIKITA MATSUNAGA, BENEDETTA MENNUCCI,
     GRANT MERRILL, NORIYUKI MINEZAWA, VLADIMIR MIRONOV,
     EISAKU MIYOSHI, JOHN A. MONTGOMERY JR., HIROTOSHI MORI,
     JONATHAN MULLIN, MONIKA MUSIAL, SHIGERU NAGASE,
     TAKESHI NAGATA, HIROMI NAKAI, TAKAHITO NAKAJIMA,
     YUYA NAKAJIMA, HARUYUKI NAKANO, HIROYA NAKATA, SEAN NEDD,
     HEATHER NETZLOFF, KIET A. NGUYEN, YOSHIO NISHIMOTO,
     BOSILJKA NJEGIC, RYAN OLSON, MIKE PAK, ROBERTO PEVERATI,
     BUU PHAM, PIOTR PIECUCH, ANNA POMOGAEVA, DAVID POOLE,
     SPENCER PRUITT, OLIVIER QUINET, LUKE ROSKOP,
     KLAUS RUEDENBERG, ANDREW SAND, TOSAPORN SATTASATHUCHANA,
     NOZOMI SAWADA, MICHAEL W. SCHMIDT, PATRICK E. SCHNEIDER,
     JUNJI SEINO, PRACHI SHARMA, JUN SHEN, JIM SHOEMAKER,
     YINAN SHU, DEJUN SI, JONATHAN SKONE, LYUDMILA SLIPCHENKO,
     TONY SMITH, JIE SONG, MARK SPACKMAN, CASPER STEINMANN,
     WALT STEVENS, PEIFENG SU, SHUJUN SU, CHET SWALINA,
     CHINAMI TAKASHIMA, TETSUYA TAKETSUGU, ZHEN TAO,
     NANDUN THELLAMUREGE, SEIKEN TOKURA, JACOPO TOMASI,
     TSUGUKI TOUMA, TAKAO TSUNEDA, HIROAKI UMEDA,
     JORGE LUIS GALVEZ VALLEJO, YALI WANG, SIMON WEBB,
     AARON WEST, THERESA L. WINDUS, MARTA WLOCH,
     PENG XU, KIYOSHI YAGI, SUSUMU YANAGISAWA, YANG YANG,
     SOOHAENG YOO, TAKESHI YOSHIKAWA, FEDERICO ZAHARIEV,
     TOBY ZENG

  WHO ARE SUPPORTED BY THEIR INSTITUTION/UNIVERSITY/COMPANY/GROUP
  (IN ALPHABETICAL ORDER):

     EP ANALYTICS,
     FACULTES UNIVERSITAIRES NOTRE-DAME DE LA PAIX,
     INSTITUTE FOR MOLECULAR SCIENCE, IOWA STATE UNIVERSITY,
     JACKSON STATE UNIVERSITY, JOHANNES KEPLER UNIVERSITY LINZ,
     KYUNGPOOK NATIONAL UNIVERSITY
     KYUSHU UNIVERSITY, MICHIGAN STATE UNIVERSITY,
     MIE UNIVERSITY, THE MOLECULAR SCIENCES SOFTWARE INSTITUTE,
     MOSCOW STATE UNIVERSITY,
     N. COPERNICUS UNIVERSITY, NAGOYA UNIVERSITY,
     NANJING UNIVERSITY, NAT. INST. OF ADVANCED INDUSTRIAL
     SCIENCE AND TECHNOLOGY, NATIONAL INST. OF STANDARDS AND
     TECHNOLOGY, NESMEYANOV INSTITUTE OF ORGANOELEMENT COMPOUNDS
     OF RUSSIAN ACADEMY OF SCIENCES, OSAKA PREFECTURE UNIVERSITY,
     PENNSYLVANIA STATE UNIVERSITY, TOKYO INSTITUTE OF TECHNOLOGY,
     UNIVERSITY OF AARHUS, UNIVERSITY OF ALBERTA,
     UNIVERSITY OF CALIFORNIA AT SANTA BARBARA,
     UNIVERSITY OF COPENHAGEN, UNIVERSITY OF IOWA,
     UNIVERSITY OF MEMPHIS, UNIVERSITY OF MINNESOTA,
     UNIVERSITY OF NEBRASKA, UNIVERSITY OF NEW ENGLAND,
     UNIVERSITY OF NOTRE DAME, UNIVERSITY OF PISA,
     UNIVERSITY OF SILESIA, UNIVERSITY OF TOKYO,
     UNIVERSITY OF ZURICH, WASEDA UNIVERSITY,
     YALE UNIVERSITY

  GAMESS SOFTWARE MANAGEMENT TEAM FOR THIS RELEASE:
     MARK S. GORDON (TEAM LEAD),
     BRETT BODE (SENIOR ADVISOR),
     GIUSEPPE BARCA,
     COLLEEN BERTONI,
     KRISTOPHER KEIPERT (ADVISOR),
     SAROM S. LEANG (DEVELOPMENT LEAD),
     BUU PHAM,
     JACKSON HAYES (WEBSITE ADMINISTRATOR),
     PENG XU

 EXECUTION OF GAMESS BEGUN 17:45:43 15-DEC-2023    

            ECHO OF THE FIRST FEW INPUT CARDS -
 INPUT CARD> $CONTRL RUNTYP=ENERGY CCTYP=CCT3 COORD=PRINAXIS                                
 INPUT CARD>  MULT=1 ICHARG=0 UNITS=ANGS ISPHER=1 $END                                      
 INPUT CARD> $SYSTEM TIMLIM=999999999999999 MWORDS=500 $END                                 
 INPUT CARD> $BASIS GBASIS=STO NGAUSS=3 $END                                                
 INPUT CARD> $SCF NCONV=9  $END                                                             
 INPUT CARD> $CCINP MAXCC=800 $END                                                          
 INPUT CARD> $DATA                                                                          
 INPUT CARD>Title                                                                           
 INPUT CARD>DNH 2                                                                           
 INPUT CARD>                                                                                
 INPUT CARD>C  6.0  -2.433634  0.708354  0.000000                                           
 INPUT CARD>C  6.0  -2.433634 -0.708354  0.000000                                           
 INPUT CARD>C  6.0   2.433634  0.708354  0.000000                                           
 INPUT CARD>C  6.0   2.433634 -0.708354  0.000000                                           
 INPUT CARD>H  1.0  -3.378135 -1.245817  0.000000                                           
 INPUT CARD>H  1.0  -3.378135  1.245817  0.000000                                           
 INPUT CARD>H  1.0   3.378135  1.245817  0.000000                                           
 INPUT CARD>H  1.0   3.378135 -1.245817  0.000000                                           
 INPUT CARD>C  6.0  -1.244704  1.402507  0.000000                                           
 INPUT CARD>C  6.0  -1.244704 -1.402507  0.000000                                           
 INPUT CARD>C  6.0   1.244704  1.402507  0.000000                                           
 INPUT CARD>C  6.0   1.244704 -1.402507  0.000000                                           
 INPUT CARD>C  6.0  -0.000000  0.717168  0.000000                                           
 INPUT CARD>C  6.0  -0.000000 -0.717168  0.000000                                           
 INPUT CARD>H  1.0  -1.242591  2.490280  0.000000                                           
 INPUT CARD>H  1.0  -1.242591 -2.490280  0.000000                                           
 INPUT CARD>H  1.0   1.242591  2.490280  0.000000                                           
 INPUT CARD>H  1.0   1.242591 -2.490280  0.000000                                           
 INPUT CARD> $END                                                                           
 INPUT CARD>                                                                                
    500000000 WORDS OF MEMORY AVAILABLE

     BASIS OPTIONS
     -------------
     GBASIS=STO          IGAUSS=       3      POLAR=NONE    
     NDFUNC=       0     NFFUNC=       0     DIFFSP=       F
     NPFUNC=       0      DIFFS=       F     BASNAM=        


     RUN TITLE
     ---------
 Title                                                                           

 THE POINT GROUP OF THE MOLECULE IS DNH     
 THE ORDER OF THE PRINCIPAL AXIS IS     2

 THE MOMENTS OF INERTIA ARE (AMU-ANGSTROM**2)
 IXX=   162.103   IYY=   410.878   IZZ=   572.981

 ATOM      ATOMIC                      COORDINATES (BOHR)
           CHARGE         X                   Y                   Z
 C           6.0     4.5989014144       -1.3385949623        0.0000000000
 C           6.0    -4.5989014144       -1.3385949623        0.0000000000
 C           6.0     4.5989014144        1.3385949623        0.0000000000
 C           6.0    -4.5989014144        1.3385949623        0.0000000000
 H           1.0     6.3837494995        2.3542527608        0.0000000000
 H           1.0    -6.3837494995        2.3542527608        0.0000000000
 H           1.0     6.3837494995       -2.3542527608        0.0000000000
 H           1.0    -6.3837494995       -2.3542527608        0.0000000000
 C           6.0     2.3521494958       -2.6503539259        0.0000000000
 C           6.0    -2.3521494958       -2.6503539259        0.0000000000
 C           6.0     2.3521494958        2.6503539259        0.0000000000
 C           6.0    -2.3521494958        2.6503539259        0.0000000000
 C           6.0    -0.0000000000       -1.3552510072        0.0000000000
 C           6.0     0.0000000000        1.3552510072        0.0000000000
 H           1.0     2.3481565048       -4.7059468327        0.0000000000
 H           1.0    -2.3481565048       -4.7059468327        0.0000000000
 H           1.0     2.3481565048        4.7059468327        0.0000000000
 H           1.0    -2.3481565048        4.7059468327        0.0000000000

          INTERNUCLEAR DISTANCES (ANGS.)
          ------------------------------

                1 C          2 C          3 C          4 C          5 H     

   1 C       0.0000000    4.8672680    1.4167080 *  5.0692563    2.1704530 *
   2 C       4.8672680    0.0000000    5.0692563    1.4167080 *  6.1315123  
   3 C       1.4167080 *  5.0692563    0.0000000    4.8672680    1.0867146 *
   4 C       5.0692563    1.4167080 *  4.8672680    0.0000000    5.8365679  
   5 H       2.1704530 *  6.1315123    1.0867146 *  5.8365679    0.0000000  
   6 H       6.1315123    2.1704530 *  5.8365679    1.0867146 *  6.7562700  
   7 H       1.0867146 *  5.8365679    2.1704530 *  6.1315123    2.4916340 *
   8 H       5.8365679    1.0867146 *  6.1315123    2.1704530 *  7.2010711  
   9 C       1.3767363 *  3.7432631    2.4226615 *  4.2409792    3.4007570  
  10 C       3.7432631    1.3767363 *  4.2409792    2.4226615 *  5.3276881  
  11 C       2.4226615 *  4.2409792    1.3767363 *  3.7432631    2.1391773 *
  12 C       4.2409792    2.4226615 *  3.7432631    1.3767363 *  4.6254937  
  13 C       2.4336500 *  2.4336500 *  2.8204055 *  2.8204055 *  3.9070585  
  14 C       2.8204055 *  2.8204055 *  2.4336500 *  2.4336500 *  3.4192493  
  15 H       2.1433254 *  4.0853262    3.4131866    4.8729754    4.3033672  
  16 H       4.0853262    2.1433254 *  4.8729754    3.4131866    5.9421822  
  17 H       3.4131866    4.8729754    2.1433254 *  4.0853262    2.4716869 *
  18 H       4.8729754    3.4131866    4.0853262    2.1433254 *  4.7853732  

                6 H          7 H          8 H          9 C         10 C     

   1 C       6.1315123    1.0867146 *  5.8365679    1.3767363 *  3.7432631  
   2 C       2.1704530 *  5.8365679    1.0867146 *  3.7432631    1.3767363 *
   3 C       5.8365679    2.1704530 *  6.1315123    2.4226615 *  4.2409792  
   4 C       1.0867146 *  6.1315123    2.1704530 *  4.2409792    2.4226615 *
   5 H       6.7562700    2.4916340 *  7.2010711    3.4007570    5.3276881  
   6 H       0.0000000    7.2010711    2.4916340 *  5.3276881    3.4007570  
   7 H       7.2010711    0.0000000    6.7562700    2.1391773 *  4.6254937  
   8 H       2.4916340 *  6.7562700    0.0000000    4.6254937    2.1391773 *
   9 C       5.3276881    2.1391773 *  4.6254937    0.0000000    2.4894080 *
  10 C       3.4007570    4.6254937    2.1391773 *  2.4894080 *  0.0000000  
  11 C       4.6254937    3.4007570    5.3276881    2.8050140 *  3.7503674  
  12 C       2.1391773 *  5.3276881    3.4007570    3.7503674    2.8050140 *
  13 C       3.9070585    3.4192493    3.4192493    1.4209073 *  1.4209073 *
  14 C       3.4192493    3.9070585    3.9070585    2.4581111 *  2.4581111 *
  15 H       5.9421822    2.4716869 *  4.7853732    1.0877751 *  2.7147535 *
  16 H       4.3033672    4.7853732    2.4716869 *  2.7147535 *  1.0877751 *
  17 H       4.7853732    4.3033672    5.9421822    3.8927876    4.6195700  
  18 H       2.4716869 *  5.9421822    4.3033672    4.6195700    3.8927876  

               11 C         12 C         13 C         14 C         15 H     

   1 C       2.4226615 *  4.2409792    2.4336500 *  2.8204055 *  2.1433254 *
   2 C       4.2409792    2.4226615 *  2.4336500 *  2.8204055 *  4.0853262  
   3 C       1.3767363 *  3.7432631    2.8204055 *  2.4336500 *  3.4131866  
   4 C       3.7432631    1.3767363 *  2.8204055 *  2.4336500 *  4.8729754  
   5 H       2.1391773 *  4.6254937    3.9070585    3.4192493    4.3033672  
   6 H       4.6254937    2.1391773 *  3.9070585    3.4192493    5.9421822  
   7 H       3.4007570    5.3276881    3.4192493    3.9070585    2.4716869 *
   8 H       5.3276881    3.4007570    3.4192493    3.9070585    4.7853732  
   9 C       2.8050140 *  3.7503674    1.4209073 *  2.4581111 *  1.0877751 *
  10 C       3.7503674    2.8050140 *  1.4209073 *  2.4581111 *  2.7147535 *
  11 C       0.0000000    2.4894080 *  2.4581111 *  1.4209073 *  3.8927876  
  12 C       2.4894080 *  0.0000000    2.4581111 *  1.4209073 *  4.6195700  
  13 C       2.4581111 *  2.4581111 *  0.0000000    1.4343360 *  2.1651694 *
  14 C       1.4209073 *  1.4209073 *  1.4343360 *  0.0000000    3.4397318  
  15 H       3.8927876    4.6195700    2.1651694 *  3.4397318    0.0000000  
  16 H       4.6195700    3.8927876    2.1651694 *  3.4397318    2.4851820 *
  17 H       1.0877751 *  2.7147535 *  3.4397318    2.1651694 *  4.9805600  
  18 H       2.7147535 *  1.0877751 *  3.4397318    2.1651694 *  5.5661573  

               16 H         17 H         18 H     

   1 C       4.0853262    3.4131866    4.8729754  
   2 C       2.1433254 *  4.8729754    3.4131866  
   3 C       4.8729754    2.1433254 *  4.0853262  
   4 C       3.4131866    4.0853262    2.1433254 *
   5 H       5.9421822    2.4716869 *  4.7853732  
   6 H       4.3033672    4.7853732    2.4716869 *
   7 H       4.7853732    4.3033672    5.9421822  
   8 H       2.4716869 *  5.9421822    4.3033672  
   9 C       2.7147535 *  3.8927876    4.6195700  
  10 C       1.0877751 *  4.6195700    3.8927876  
  11 C       4.6195700    1.0877751 *  2.7147535 *
  12 C       3.8927876    2.7147535 *  1.0877751 *
  13 C       2.1651694 *  3.4397318    3.4397318  
  14 C       3.4397318    2.1651694 *  2.1651694 *
  15 H       2.4851820 *  4.9805600    5.5661573  
  16 H       0.0000000    5.5661573    4.9805600  
  17 H       5.5661573    0.0000000    2.4851820 *
  18 H       4.9805600    2.4851820 *  0.0000000  

  * ... LESS THAN  3.000


     ATOMIC BASIS SET
     ----------------
 THE CONTRACTED PRIMITIVE FUNCTIONS HAVE BEEN UNNORMALIZED
 THE CONTRACTED BASIS FUNCTIONS ARE NOW NORMALIZED TO UNITY

  SHELL TYPE  PRIMITIVE        EXPONENT          CONTRACTION COEFFICIENT(S)

 C         

      7   S       1            71.6168373    0.154328967295
      7   S       2            13.0450963    0.535328142282
      7   S       3             3.5305122    0.444634542185

      8   L       4             2.9412494   -0.099967229187    0.155916274999
      8   L       5             0.6834831    0.399512826089    0.607683718598
      8   L       6             0.2222899    0.700115468880    0.391957393099

 H         

     12   S       7             3.4252509    0.154328967295
     12   S       8             0.6239137    0.535328142282
     12   S       9             0.1688554    0.444634542185

 C         

     19   S      10            71.6168373    0.154328967295
     19   S      11            13.0450963    0.535328142282
     19   S      12             3.5305122    0.444634542185

     20   L      13             2.9412494   -0.099967229187    0.155916274999
     20   L      14             0.6834831    0.399512826089    0.607683718598
     20   L      15             0.2222899    0.700115468880    0.391957393099

 C         

     23   S      16            71.6168373    0.154328967295
     23   S      17            13.0450963    0.535328142282
     23   S      18             3.5305122    0.444634542185

     24   L      19             2.9412494   -0.099967229187    0.155916274999
     24   L      20             0.6834831    0.399512826089    0.607683718598
     24   L      21             0.2222899    0.700115468880    0.391957393099

 H         

     28   S      22             3.4252509    0.154328967295
     28   S      23             0.6239137    0.535328142282
     28   S      24             0.1688554    0.444634542185

 TOTAL NUMBER OF BASIS SET SHELLS             =   28
 NUMBER OF CARTESIAN GAUSSIAN BASIS FUNCTIONS =   58
 NOTE: THIS RUN WILL RESTRICT THE MO VARIATION SPACE TO SPHERICAL HARMONICS.
 THE NUMBER OF ORBITALS KEPT IN THE VARIATIONAL SPACE WILL BE PRINTED LATER.
 NUMBER OF ELECTRONS                          =   68
 CHARGE OF MOLECULE                           =    0
 SPIN MULTIPLICITY                            =    1
 NUMBER OF OCCUPIED ORBITALS (ALPHA)          =   34
 NUMBER OF OCCUPIED ORBITALS (BETA )          =   34
 TOTAL NUMBER OF ATOMS                        =   18
 THE NUCLEAR REPULSION ENERGY IS      457.1932839439

     $CONTRL OPTIONS
     ---------------
 SCFTYP=ROHF         RUNTYP=ENERGY       EXETYP=RUN     
 MPLEVL=       0     CITYP =NONE         CCTYP =CCT3         VBTYP =NONE    
 DFTTYP=NONE         TDDFT =NONE    
 MULT  =       1     ICHARG=       0     NZVAR =       0     COORD =PRINAXIS
 PP    =NONE         RELWFN=NONE         LOCAL =NONE         NUMGRD=       F
 ISPHER=       1     NOSYM =       0     MAXIT =      30     UNITS =ANGS    
 PLTORB=       F     MOLPLT=       F     AIMPAC=       F     FRIEND=        
 NPRINT=       7     IREST =       0     GEOM  =INPUT   
 NORMF =       0     NORMP =       0     ITOL  =      20     ICUT  =       9
 INTTYP=BEST         GRDTYP=BEST         QMTTOL= 1.0E-06

     $SYSTEM OPTIONS
     ---------------
  REPLICATED MEMORY=   500000000 WORDS (ON EVERY NODE).
 DISTRIBUTED MEMDDI=           0 MILLION WORDS IN AGGREGATE,
 MEMDDI DISTRIBUTED OVER   1 PROCESSORS IS           0 WORDS/PROCESSOR.
 TOTAL MEMORY REQUESTED ON EACH PROCESSOR=   500000000 WORDS.
 TIMLIM=*************** MINUTES, OR ********* DAYS.
 PARALL= F  BALTYP=  DLB     KDIAG=    0  COREFL= F
 MXSEQ2=     300 MXSEQ3=     150  mem10=         0  mem22=         0

          ----------------
          PROPERTIES INPUT
          ----------------

     MOMENTS            FIELD           POTENTIAL          DENSITY
 IEMOM =       1   IEFLD =       0   IEPOT =       0   IEDEN =       0
 WHERE =COMASS     WHERE =NUCLEI     WHERE =NUCLEI     WHERE =NUCLEI  
 OUTPUT=BOTH       OUTPUT=BOTH       OUTPUT=BOTH       OUTPUT=BOTH    
 IEMINT=       0   IEFINT=       0                     IEDINT=       0
                                                       MORB  =       0
          EXTRAPOLATION IN EFFECT
          SOSCF IN EFFECT
 ORBITAL PRINTING OPTION: NPREO=     1    58     2     1

     -------------------------------
     INTEGRAL TRANSFORMATION OPTIONS
     -------------------------------
     NWORD  =            0
     CUTTRF = 1.0E-09     MPTRAN =       0
     DIRTRF =       F     AOINTS =DUP     

          ----------------------
          INTEGRAL INPUT OPTIONS
          ----------------------
 NOPK  =       1 NORDER=       0 SCHWRZ=       T

     -------------------------------------------
     EQUATION OF MOTION INPUT FOR EXCITED STATES
     -------------------------------------------
     OPTIONS FOR STATE SELECTION:
     GROUP =D2H       NSTATE= 1, 0, 0, 0, 0, 0, 0, 0    IROOT = 1, 0
     OPTIONS FOR THE EOM-CCSD:
     MEOM  =       0  MAXEOM=      50  MICEOM=      80  CVGEOM= 1.0E-04
     OPTIONS FOR EOM-CCSD WITH ROHF REFERENCES:
     JREST =       0  MULT =      -1
     OPTIONS FOR PROPERTIES:
     CCPRP =       F  CCPRPE =       F
     OPTIONS FOR INITIAL GUESSES:
     MINIT =       2  MACT =       0  NOACT =       0  NUACT =       0
     NO DOUBLE EXCITATIONS WILL BE INCLUDED IN THE INITIAL GUESS

     ------------------------------------------
     THE POINT GROUP IS DNH, NAXIS= 2, ORDER= 8
     ------------------------------------------

 -- VARIATIONAL SPACE WILL BE RESTRICTED TO PURE SPHERICAL HARMONICS ONLY --
 AFTER EXCLUDING CONTAMINANT COMBINATIONS FROM THE CARTESIAN GAUSSIAN BASIS
 SET, THE NUMBER OF SPHERICAL HARMONICS KEPT IN THE VARIATION SPACE IS   58

     DIMENSIONS OF THE SYMMETRY SUBSPACES ARE
 AG  =   13     AU  =    2     B3U =   11     B3G =    3     B1G =   11
 B1U =    3     B2U =   13     B2G =    2

 ..... DONE SETTING UP THE RUN .....
 STEP CPU TIME =     0.02 TOTAL CPU TIME =          0.0 (      0.0 MIN)
 TOTAL WALL CLOCK TIME=          0.0 SECONDS, CPU UTILIZATION IS    93.11%

          ********************
          1 ELECTRON INTEGRALS
          ********************
 ...... END OF ONE-ELECTRON INTEGRALS ......
 STEP CPU TIME =     0.01 TOTAL CPU TIME =          0.0 (      0.0 MIN)
 TOTAL WALL CLOCK TIME=          0.0 SECONDS, CPU UTILIZATION IS    95.20%

          -------------
          GUESS OPTIONS
          -------------
          GUESS =HUCKEL            NORB  =       0          NORDER=       0
          MIX   =       F          PRTMO =       F          PUNMO =       F
          TOLZ  = 1.0E-08          TOLE  = 1.0E-05
          SYMDEN=       F          PURIFY=       F

 INITIAL GUESS ORBITALS GENERATED BY HUCKEL   ROUTINE.
 HUCKEL GUESS REQUIRES     49906 WORDS.

 SYMMETRIES FOR INITIAL GUESS ORBITALS FOLLOW.  ALPHA SET(S).
    34 ORBITALS ARE OCCUPIED (   10 CORE ORBITALS).
    11=AG      12=B3U     13=B2U     14=AG      15=B1G     16=AG      17=B3U 
    18=B2U     19=B3U     20=B1G     21=B1U     22=AG      23=B2U     24=B2G 
    25=AG      26=B1G     27=B2U     28=B3G     29=B3U     30=B3U     31=B1U 
    32=AU      33=AG      34=B1G     35=B2G     36=B3G     37=B1U     38=AU  
    39=B3G     40=AG      41=AG      42=AG      43=AG      44=B3U 

 SYMMETRIES FOR INITIAL GUESS ORBITALS FOLLOW.   BETA SET(S).
    34 ORBITALS ARE OCCUPIED (   10 CORE ORBITALS).
    11=AG      12=B3U     13=B2U     14=AG      15=B1G     16=AG      17=B3U 
    18=B2U     19=B3U     20=B1G     21=B1U     22=AG      23=B2U     24=B2G 
    25=AG      26=B1G     27=B2U     28=B3G     29=B3U     30=B3U     31=B1U 
    32=AU      33=AG      34=B1G     35=B2G     36=B3G     37=B1U     38=AU  
    39=B3G     40=AG      41=AG      42=AG      43=AG      44=B3U 
 ...... END OF INITIAL ORBITAL SELECTION ......
 STEP CPU TIME =     0.04 TOTAL CPU TIME =          0.1 (      0.0 MIN)
 TOTAL WALL CLOCK TIME=          0.1 SECONDS, CPU UTILIZATION IS   105.03%

                    ----------------------
                    AO INTEGRAL TECHNOLOGY
                    ----------------------
     S,P,L SHELL ROTATED AXIS INTEGRALS, REPROGRAMMED BY
        KAZUYA ISHIMURA (IMS) AND JOSE SIERRA (SYNSTAR).
     S,P,D,L SHELL ROTATED AXIS INTEGRALS PROGRAMMED BY
        KAZUYA ISHIMURA (INSTITUTE FOR MOLECULAR SCIENCE).
     S,P,D,F,G SHELL TO TOTAL QUARTET ANGULAR MOMENTUM SUM 5,
        ERIC PROGRAM BY GRAHAM FLETCHER (ELORET AND NASA ADVANCED
        SUPERCOMPUTING DIVISION, AMES RESEARCH CENTER).
     S,P,D,F,G,L SHELL GENERAL RYS QUADRATURE PROGRAMMED BY
        MICHEL DUPUIS (PACIFIC NORTHWEST NATIONAL LABORATORY).

          --------------------
          2 ELECTRON INTEGRALS
          --------------------

 THE -PK- OPTION IS OFF, THE INTEGRALS ARE NOT IN SUPERMATRIX FORM.
 STORING   15000 INTEGRALS/RECORD ON DISK, USING 12 BYTES/INTEGRAL.
 TWO ELECTRON INTEGRAL EVALUATION REQUIRES   89762 WORDS OF MEMORY.
 SCHWARZ INEQUALITY OVERHEAD:      1677 INTEGRALS, T=        0.00
 II,JST,KST,LST =  1  1  1  1 NREC =         1 INTLOC =    1
 II,JST,KST,LST =  2  1  1  1 NREC =         1 INTLOC =    1
 II,JST,KST,LST =  3  1  1  1 NREC =         1 INTLOC =    1
 II,JST,KST,LST =  4  1  1  1 NREC =         1 INTLOC =    1
 II,JST,KST,LST =  5  1  1  1 NREC =         1 INTLOC =    1
 II,JST,KST,LST =  6  1  1  1 NREC =         1 INTLOC =    1
 II,JST,KST,LST =  7  1  1  1 NREC =         1 INTLOC =    1
 II,JST,KST,LST =  8  1  1  1 NREC =         1 INTLOC =    7
 II,JST,KST,LST =  9  1  1  1 NREC =         1 INTLOC = 1995
 II,JST,KST,LST = 10  1  1  1 NREC =         1 INTLOC = 1995
 II,JST,KST,LST = 11  1  1  1 NREC =         1 INTLOC = 1995
 II,JST,KST,LST = 12  1  1  1 NREC =         1 INTLOC = 1995
 II,JST,KST,LST = 13  1  1  1 NREC =         1 INTLOC = 4339
 II,JST,KST,LST = 14  1  1  1 NREC =         1 INTLOC = 4339
 II,JST,KST,LST = 15  1  1  1 NREC =         1 INTLOC = 4339
 II,JST,KST,LST = 16  1  1  1 NREC =         1 INTLOC = 4339
 II,JST,KST,LST = 17  1  1  1 NREC =         1 INTLOC = 4339
 II,JST,KST,LST = 18  1  1  1 NREC =         1 INTLOC = 4339
 II,JST,KST,LST = 19  1  1  1 NREC =         1 INTLOC = 4339
 II,JST,KST,LST = 20  1  1  1 NREC =         1 INTLOC = 7441
 II,JST,KST,LST = 21  1  1  1 NREC =         4 INTLOC =11855
 II,JST,KST,LST = 22  1  1  1 NREC =         4 INTLOC =11855
 II,JST,KST,LST = 23  1  1  1 NREC =         4 INTLOC =11855
 II,JST,KST,LST = 24  1  1  1 NREC =         5 INTLOC = 7520
 II,JST,KST,LST = 25  1  1  1 NREC =        10 INTLOC = 1340
 II,JST,KST,LST = 26  1  1  1 NREC =        10 INTLOC = 1340
 II,JST,KST,LST = 27  1  1  1 NREC =        10 INTLOC = 1340
 II,JST,KST,LST = 28  1  1  1 NREC =        10 INTLOC = 1340
 SCHWARZ INEQUALITY TEST SKIPPED        5998 INTEGRAL BLOCKS.
 TOTAL NUMBER OF NONZERO TWO-ELECTRON INTEGRALS =              187258
         13 INTEGRAL RECORDS WERE STORED ON DISK FILE  8.
  ...... END OF TWO-ELECTRON INTEGRALS .....
 STEP CPU TIME =     0.13 TOTAL CPU TIME =          0.2 (      0.0 MIN)
 TOTAL WALL CLOCK TIME=          0.2 SECONDS, CPU UTILIZATION IS   100.19%

          ---------------------------
                 ROHF SCF CALCULATION
          ---------------------------

     NUCLEAR ENERGY =       457.1932839439
     MAXIT = 30     NPUNCH=  2     MULT=  1
     EXTRAP=T  DAMP=F  SHIFT=F  RSTRCT=F  DIIS=F  SOSCF=T
     DENSITY MATRIX CONV=  1.00E-09
     ROHF CANONICALIZATION PARAMETERS
             C-C     O-O     V-V
     ALPHA -0.5000  0.5000  1.5000
     BETA   1.5000  0.5000 -0.5000
     SOSCF WILL OPTIMIZE     816 ORBITAL ROTATION ANGLES. SOGTOL= 2.500E-01
     MEMORY REQUIRED FOR UHF/ROHF ITERS=     66042 WORDS.

 ITER EX      TOTAL ENERGY        E CHANGE  DENSITY CHANGE    ORB. GRAD 
   1  0     -378.3640358413  -378.3640358413   0.176848768   0.000000000
          ---------------START SECOND ORDER SCF---------------
   2  1     -378.6774572401    -0.3134213988   0.039064602   0.016161895
   3  2     -378.6833325510    -0.0058753110   0.020056140   0.005747731
   4  3     -378.6838229429    -0.0004903918   0.002553997   0.002522124
   5  4     -378.6838739340    -0.0000509912   0.001414917   0.000561202
   6  5     -378.6838789407    -0.0000050067   0.000861367   0.000276114
   7  6     -378.6838798538    -0.0000009131   0.000058256   0.000042159
   8  7     -378.6838798696    -0.0000000158   0.000006030   0.000003971
   9  8     -378.6838798699    -0.0000000003   0.000002585   0.000000769
  10  9     -378.6838798699    -0.0000000000   0.000000659   0.000000147
  11 10     -378.6838798699    -0.0000000000   0.000000176   0.000000068
  12 11     -378.6838798699    -0.0000000000   0.000000016   0.000000010
  13 12     -378.6838798699     0.0000000000   0.000000003   0.000000001
  14 13     -378.6838798699    -0.0000000000   0.000000001   0.000000000
  15 14     -378.6838798699     0.0000000000   0.000000000   0.000000000

 ROHF HAS CONVERGED, NOW COMPUTING EXACT ALPHA,BETA FOCK MATRICES
 FOR USE DURING THE COUPLED CLUSTER CALCULATION THAT FOLLOWS.

          -----------------
          DENSITY CONVERGED
          -----------------
     TIME TO FORM FOCK OPERATORS=       0.1 SECONDS (       0.0 SEC/ITER)
     TIME TO SOLVE SCF EQUATIONS=       0.0 SECONDS (       0.0 SEC/ITER)

 FINAL ROHF ENERGY IS     -378.6838798699 AFTER  15 ITERATIONS

          --------------------
          SPIN SZ   =    0.000
          S-SQUARED =    0.000
          --------------------

          ------------
          EIGENVECTORS
          ------------

                      1          2          3          4          5
                  -11.0388   -11.0387   -11.0297   -11.0297   -11.0296
                     AG         B2U        B3U        AG         B1G 
    1  C  1  S   -0.004415   0.000859   0.491265   0.492256   0.485236
    2  C  1  S   -0.000052   0.000237   0.014087   0.014154   0.020390
    3  C  1  X    0.000102  -0.000119  -0.000228  -0.000246  -0.000240
    4  C  1  Y   -0.000064   0.000068  -0.001891  -0.001908   0.002551
    5  C  1  Z    0.000000   0.000000   0.000000   0.000000   0.000000
    6  C  2  S   -0.004415   0.000859  -0.491265   0.492256  -0.485236
    7  C  2  S   -0.000052   0.000237  -0.014087   0.014154  -0.020390
    8  C  2  X   -0.000102   0.000119  -0.000228   0.000246  -0.000240
    9  C  2  Y   -0.000064   0.000068   0.001891  -0.001908  -0.002551
   10  C  2  Z    0.000000   0.000000   0.000000   0.000000   0.000000
   11  C  3  S   -0.004415  -0.000859   0.491265   0.492256  -0.485236
   12  C  3  S   -0.000052  -0.000237   0.014087   0.014154  -0.020390
   13  C  3  X    0.000102   0.000119  -0.000228  -0.000246   0.000240
   14  C  3  Y    0.000064   0.000068   0.001891   0.001908   0.002551
   15  C  3  Z    0.000000   0.000000   0.000000   0.000000   0.000000
   16  C  4  S   -0.004415  -0.000859  -0.491265   0.492256   0.485236
   17  C  4  S   -0.000052  -0.000237  -0.014087   0.014154   0.020390
   18  C  4  X   -0.000102  -0.000119  -0.000228   0.000246   0.000240
   19  C  4  Y    0.000064   0.000068  -0.001891   0.001908  -0.002551
   20  C  4  Z    0.000000   0.000000   0.000000   0.000000   0.000000
   21  H  5  S   -0.000059   0.000019  -0.003332  -0.003340   0.003351
   22  H  6  S   -0.000059   0.000019   0.003332  -0.003340  -0.003351
   23  H  7  S   -0.000059  -0.000019  -0.003332  -0.003340  -0.003351
   24  H  8  S   -0.000059  -0.000019   0.003332  -0.003340   0.003351
   25  C  9  S    0.001735   0.005256   0.070904   0.063516   0.102560
   26  C  9  S   -0.004605  -0.004830  -0.000882  -0.001314   0.000020
   27  C  9  X    0.002729   0.002778  -0.001916  -0.001793  -0.001902
   28  C  9  Y   -0.001505  -0.001508  -0.001096  -0.001143  -0.001034
   29  C  9  Z    0.000000   0.000000   0.000000   0.000000   0.000000
   30  C 10  S    0.001735   0.005256  -0.070904   0.063516  -0.102560
   31  C 10  S   -0.004605  -0.004830   0.000882  -0.001314  -0.000020
   32  C 10  X   -0.002729  -0.002778  -0.001916   0.001793  -0.001902
   33  C 10  Y   -0.001505  -0.001508   0.001096  -0.001143   0.001034
   34  C 10  Z    0.000000   0.000000   0.000000   0.000000   0.000000
   35  C 11  S    0.001735  -0.005256   0.070904   0.063516  -0.102560
   36  C 11  S   -0.004605   0.004830  -0.000882  -0.001314  -0.000020
   37  C 11  X    0.002729  -0.002778  -0.001916  -0.001793   0.001902
   38  C 11  Y    0.001505  -0.001508   0.001096   0.001143  -0.001034
   39  C 11  Z    0.000000   0.000000   0.000000   0.000000   0.000000
   40  C 12  S    0.001735  -0.005256  -0.070904   0.063516   0.102560
   41  C 12  S   -0.004605   0.004830   0.000882  -0.001314   0.000020
   42  C 12  X   -0.002729   0.002778  -0.001916   0.001793   0.001902
   43  C 12  Y    0.001505  -0.001508  -0.001096   0.001143   0.001034
   44  C 12  Z    0.000000   0.000000   0.000000   0.000000   0.000000
   45  C 13  S    0.701823   0.701194   0.000000   0.006096   0.000000
   46  C 13  S    0.020982   0.030487   0.000000  -0.000504   0.000000
   47  C 13  X    0.000000   0.000000  -0.000741   0.000000  -0.000621
   48  C 13  Y   -0.003068   0.003166   0.000000   0.000054   0.000000
   49  C 13  Z    0.000000   0.000000   0.000000   0.000000   0.000000
   50  C 14  S    0.701823  -0.701194   0.000000   0.006096   0.000000
   51  C 14  S    0.020982  -0.030487   0.000000  -0.000504   0.000000
   52  C 14  X    0.000000   0.000000  -0.000741   0.000000   0.000621
   53  C 14  Y    0.003068   0.003166   0.000000  -0.000054   0.000000
   54  C 14  Z    0.000000   0.000000   0.000000   0.000000   0.000000
   55  H 15  S   -0.000012   0.000074  -0.000473  -0.000439  -0.000595
   56  H 16  S   -0.000012   0.000074   0.000473  -0.000439   0.000595
   57  H 17  S   -0.000012  -0.000074  -0.000473  -0.000439   0.000595
   58  H 18  S   -0.000012  -0.000074   0.000473  -0.000439  -0.000595

                      6          7          8          9         10
                  -11.0296   -11.0284   -11.0283   -11.0283   -11.0283
                     B2U        B1G        B2U        B3U        AG  
    1  C  1  S    0.486300  -0.102187  -0.096999  -0.070552  -0.063120
    2  C  1  S    0.020451  -0.008133  -0.007992  -0.005579  -0.005431
    3  C  1  X   -0.000246   0.002003   0.002046   0.002032   0.002098
    4  C  1  Y    0.002548   0.000564   0.000591   0.001408   0.001369
    5  C  1  Z   -0.000000  -0.000000  -0.000000   0.000000  -0.000000
    6  C  2  S    0.486300   0.102187  -0.096999   0.070552  -0.063120
    7  C  2  S    0.020451   0.008133  -0.007992   0.005579  -0.005431
    8  C  2  X    0.000246   0.002003  -0.002046   0.002032  -0.002098
    9  C  2  Y    0.002548  -0.000564   0.000591  -0.001408   0.001369
   10  C  2  Z   -0.000000  -0.000000  -0.000000   0.000000  -0.000000
   11  C  3  S   -0.486300   0.102187   0.096999  -0.070552  -0.063120
   12  C  3  S   -0.020451   0.008133   0.007992  -0.005579  -0.005431
   13  C  3  X    0.000246  -0.002003  -0.002046   0.002032   0.002098
   14  C  3  Y    0.002548   0.000564   0.000591  -0.001408  -0.001369
   15  C  3  Z   -0.000000  -0.000000  -0.000000   0.000000  -0.000000
   16  C  4  S   -0.486300  -0.102187   0.096999   0.070552  -0.063120
   17  C  4  S   -0.020451  -0.008133   0.007992   0.005579  -0.005431
   18  C  4  X   -0.000246  -0.002003   0.002046   0.002032  -0.002098
   19  C  4  Y    0.002548  -0.000564   0.000591   0.001408  -0.001369
   20  C  4  Z   -0.000000  -0.000000  -0.000000   0.000000  -0.000000
   21  H  5  S    0.003359  -0.000802  -0.000766   0.000486   0.000423
   22  H  6  S    0.003359   0.000802  -0.000766  -0.000486   0.000423
   23  H  7  S   -0.003359   0.000802   0.000766   0.000486   0.000423
   24  H  8  S   -0.003359  -0.000802   0.000766  -0.000486   0.000423
   25  C  9  S    0.097365   0.485357   0.486404   0.491006   0.492035
   26  C  9  S   -0.000125   0.018446   0.018793   0.018353   0.018512
   27  C  9  X   -0.001895   0.000565   0.000457   0.000408   0.000370
   28  C  9  Y   -0.001005   0.000850   0.000929   0.000629   0.000590
   29  C  9  Z   -0.000000  -0.000000  -0.000000   0.000000  -0.000000
   30  C 10  S    0.097365  -0.485357   0.486404  -0.491006   0.492035
   31  C 10  S   -0.000125  -0.018446   0.018793  -0.018353   0.018512
   32  C 10  X    0.001895   0.000565  -0.000457   0.000408  -0.000370
   33  C 10  Y   -0.001005  -0.000850   0.000929  -0.000629   0.000590
   34  C 10  Z   -0.000000  -0.000000  -0.000000   0.000000  -0.000000
   35  C 11  S   -0.097365  -0.485357  -0.486404   0.491006   0.492035
   36  C 11  S    0.000125  -0.018446  -0.018793   0.018353   0.018512
   37  C 11  X    0.001895  -0.000565  -0.000457   0.000408   0.000370
   38  C 11  Y   -0.001005   0.000850   0.000929  -0.000629  -0.000590
   39  C 11  Z   -0.000000  -0.000000  -0.000000   0.000000  -0.000000
   40  C 12  S   -0.097365   0.485357  -0.486404  -0.491006   0.492035
   41  C 12  S    0.000125   0.018446  -0.018793  -0.018353   0.018512
   42  C 12  X   -0.001895  -0.000565   0.000457   0.000408  -0.000370
   43  C 12  Y   -0.001005  -0.000850   0.000929   0.000629  -0.000590
   44  C 12  Z   -0.000000  -0.000000  -0.000000   0.000000  -0.000000
   45  C 13  S   -0.002497  -0.000000  -0.006239   0.000000  -0.002343
   46  C 13  S   -0.001180  -0.000000  -0.007333   0.000000  -0.006683
   47  C 13  X   -0.000000  -0.003813  -0.000000  -0.003932  -0.000000
   48  C 13  Y    0.000389  -0.000000   0.001940   0.000000   0.002117
   49  C 13  Z   -0.000000  -0.000000  -0.000000   0.000000  -0.000000
   50  C 14  S    0.002497  -0.000000   0.006239   0.000000  -0.002343
   51  C 14  S    0.001180  -0.000000   0.007333   0.000000  -0.006683
   52  C 14  X   -0.000000   0.003813  -0.000000  -0.003932  -0.000000
   53  C 14  Y    0.000389  -0.000000   0.001940   0.000000  -0.002117
   54  C 14  Z   -0.000000  -0.000000  -0.000000   0.000000  -0.000000
   55  H 15  S   -0.000585  -0.003285  -0.003361  -0.003359  -0.003451
   56  H 16  S   -0.000585   0.003285  -0.003361   0.003359  -0.003451
   57  H 17  S    0.000585   0.003285   0.003361  -0.003359  -0.003451
   58  H 18  S    0.000585  -0.003285   0.003361   0.003359  -0.003451

                     11         12         13         14         15
                   -1.1125    -1.0471    -0.9875    -0.9450    -0.9193
                     AG         B3U        B2U        AG         B1G 
    1  C  1  S   -0.064286  -0.104086  -0.045228   0.101787  -0.070487
    2  C  1  S    0.161470   0.268817   0.120531  -0.276344   0.192280
    3  C  1  X   -0.038387  -0.040141  -0.045844  -0.012803  -0.055720
    4  C  1  Y    0.014631   0.033148  -0.054221  -0.052773  -0.086957
    5  C  1  Z    0.000000  -0.000000   0.000000  -0.000000   0.000000
    6  C  2  S   -0.064286   0.104086  -0.045228   0.101787   0.070487
    7  C  2  S    0.161470  -0.268817   0.120531  -0.276344  -0.192280
    8  C  2  X    0.038387  -0.040141   0.045844   0.012803  -0.055720
    9  C  2  Y    0.014631  -0.033148  -0.054221  -0.052773   0.086957
   10  C  2  Z    0.000000  -0.000000   0.000000  -0.000000   0.000000
   11  C  3  S   -0.064286  -0.104086   0.045228   0.101787   0.070487
   12  C  3  S    0.161470   0.268817  -0.120531  -0.276344  -0.192280
   13  C  3  X   -0.038387  -0.040141   0.045844  -0.012803   0.055720
   14  C  3  Y   -0.014631  -0.033148  -0.054221   0.052773  -0.086957
   15  C  3  Z    0.000000  -0.000000   0.000000  -0.000000   0.000000
   16  C  4  S   -0.064286   0.104086   0.045228   0.101787  -0.070487
   17  C  4  S    0.161470  -0.268817  -0.120531  -0.276344   0.192280
   18  C  4  X    0.038387  -0.040141  -0.045844   0.012803   0.055720
   19  C  4  Y   -0.014631   0.033148  -0.054221   0.052773   0.086957
   20  C  4  Z    0.000000  -0.000000   0.000000  -0.000000   0.000000
   21  H  5  S    0.026859   0.054231  -0.029894  -0.078573  -0.058908
   22  H  6  S    0.026859  -0.054231  -0.029894  -0.078573   0.058908
   23  H  7  S    0.026859   0.054231   0.029894  -0.078573   0.058908
   24  H  8  S    0.026859  -0.054231   0.029894  -0.078573  -0.058908
   25  C  9  S   -0.077352  -0.072043  -0.103176  -0.004557  -0.102678
   26  C  9  S    0.195341   0.184826   0.275384   0.013204   0.281230
   27  C  9  X   -0.016060   0.043572  -0.022857  -0.113944   0.051595
   28  C  9  Y    0.044592   0.040979   0.020664  -0.001145   0.017395
   29  C  9  Z    0.000000  -0.000000   0.000000  -0.000000   0.000000
   30  C 10  S   -0.077352   0.072043  -0.103176  -0.004557   0.102678
   31  C 10  S    0.195341  -0.184826   0.275384   0.013204  -0.281230
   32  C 10  X    0.016060   0.043572   0.022857   0.113944   0.051595
   33  C 10  Y    0.044592  -0.040979   0.020664  -0.001145  -0.017395
   34  C 10  Z    0.000000  -0.000000   0.000000  -0.000000   0.000000
   35  C 11  S   -0.077352  -0.072043   0.103176  -0.004557   0.102678
   36  C 11  S    0.195341   0.184826  -0.275384   0.013204  -0.281230
   37  C 11  X   -0.016060   0.043572   0.022857  -0.113944  -0.051595
   38  C 11  Y   -0.044592  -0.040979   0.020664   0.001145   0.017395
   39  C 11  Z    0.000000  -0.000000   0.000000  -0.000000   0.000000
   40  C 12  S   -0.077352   0.072043   0.103176  -0.004557  -0.102678
   41  C 12  S    0.195341  -0.184826  -0.275384   0.013204   0.281230
   42  C 12  X    0.016060   0.043572  -0.022857   0.113944  -0.051595
   43  C 12  Y   -0.044592   0.040979   0.020664   0.001145  -0.017395
   44  C 12  Z    0.000000  -0.000000   0.000000  -0.000000   0.000000
   45  C 13  S   -0.115196  -0.000000  -0.086717  -0.107649   0.000000
   46  C 13  S    0.291466  -0.000000   0.230742   0.294076   0.000000
   47  C 13  X    0.000000   0.083571   0.000000  -0.000000   0.104128
   48  C 13  Y    0.024248  -0.000000  -0.103865   0.046775   0.000000
   49  C 13  Z    0.000000  -0.000000   0.000000  -0.000000   0.000000
   50  C 14  S   -0.115196  -0.000000   0.086717  -0.107649   0.000000
   51  C 14  S    0.291466  -0.000000  -0.230742   0.294076   0.000000
   52  C 14  X    0.000000   0.083571   0.000000  -0.000000  -0.104128
   53  C 14  Y   -0.024248  -0.000000  -0.103865  -0.046775   0.000000
   54  C 14  Z    0.000000  -0.000000   0.000000  -0.000000   0.000000
   55  H 15  S    0.034347   0.034744   0.073071   0.004660   0.080113
   56  H 16  S    0.034347  -0.034744   0.073071   0.004660  -0.080113
   57  H 17  S    0.034347   0.034744  -0.073071   0.004660  -0.080113
   58  H 18  S    0.034347  -0.034744  -0.073071   0.004660   0.080113

                     16         17         18         19         20
                   -0.7931    -0.7750    -0.7537    -0.6504    -0.6475
                     B3U        B2U        AG         B1G        B3U 
    1  C  1  S    0.065164   0.080927  -0.022223  -0.069013  -0.002712
    2  C  1  S   -0.192893  -0.236547   0.064351   0.220330   0.004064
    3  C  1  X   -0.121451  -0.000416   0.044511   0.101704  -0.103248
    4  C  1  Y   -0.099044   0.108432   0.109150  -0.095444   0.165484
    5  C  1  Z   -0.000000   0.000000  -0.000000  -0.000000   0.000000
    6  C  2  S   -0.065164   0.080927  -0.022223   0.069013   0.002712
    7  C  2  S    0.192893  -0.236547   0.064351  -0.220330  -0.004064
    8  C  2  X   -0.121451   0.000416  -0.044511   0.101704  -0.103248
    9  C  2  Y    0.099044   0.108432   0.109150   0.095444  -0.165484
   10  C  2  Z   -0.000000   0.000000  -0.000000  -0.000000   0.000000
   11  C  3  S    0.065164  -0.080927  -0.022223   0.069013  -0.002712
   12  C  3  S   -0.192893   0.236547   0.064351  -0.220330   0.004064
   13  C  3  X   -0.121451   0.000416   0.044511  -0.101704  -0.103248
   14  C  3  Y    0.099044   0.108432  -0.109150  -0.095444  -0.165484
   15  C  3  Z   -0.000000   0.000000  -0.000000  -0.000000   0.000000
   16  C  4  S   -0.065164  -0.080927  -0.022223  -0.069013   0.002712
   17  C  4  S    0.192893   0.236547   0.064351   0.220330  -0.004064
   18  C  4  X   -0.121451  -0.000416  -0.044511  -0.101704  -0.103248
   19  C  4  Y   -0.099044   0.108432  -0.109150   0.095444   0.165484
   20  C  4  Z   -0.000000   0.000000  -0.000000  -0.000000   0.000000
   21  H  5  S   -0.102227   0.120773   0.016956  -0.192984  -0.118543
   22  H  6  S    0.102227   0.120773   0.016956   0.192984   0.118543
   23  H  7  S   -0.102227  -0.120773   0.016956   0.192984  -0.118543
   24  H  8  S    0.102227  -0.120773   0.016956  -0.192984   0.118543
   25  C  9  S   -0.081921   0.001998   0.071571   0.059271   0.023628
   26  C  9  S    0.236667  -0.003119  -0.214123  -0.190977  -0.081380
   27  C  9  X   -0.046726  -0.189592  -0.016060   0.123823  -0.067289
   28  C  9  Y   -0.005741  -0.005569   0.123922   0.040760   0.190790
   29  C  9  Z   -0.000000   0.000000  -0.000000  -0.000000   0.000000
   30  C 10  S    0.081921   0.001998   0.071571  -0.059271  -0.023628
   31  C 10  S   -0.236667  -0.003119  -0.214123   0.190977   0.081380
   32  C 10  X   -0.046726   0.189592   0.016060   0.123823  -0.067289
   33  C 10  Y    0.005741  -0.005569   0.123922  -0.040760  -0.190790
   34  C 10  Z   -0.000000   0.000000  -0.000000  -0.000000   0.000000
   35  C 11  S   -0.081921  -0.001998   0.071571  -0.059271   0.023628
   36  C 11  S    0.236667   0.003119  -0.214123   0.190977  -0.081380
   37  C 11  X   -0.046726   0.189592  -0.016060  -0.123823  -0.067289
   38  C 11  Y    0.005741  -0.005569  -0.123922   0.040760  -0.190790
   39  C 11  Z   -0.000000   0.000000  -0.000000  -0.000000   0.000000
   40  C 12  S    0.081921  -0.001998   0.071571   0.059271  -0.023628
   41  C 12  S   -0.236667   0.003119  -0.214123  -0.190977   0.081380
   42  C 12  X   -0.046726  -0.189592   0.016060  -0.123823  -0.067289
   43  C 12  Y   -0.005741  -0.005569  -0.123922  -0.040760   0.190790
   44  C 12  Z   -0.000000   0.000000  -0.000000  -0.000000   0.000000
   45  C 13  S   -0.000000  -0.082874  -0.061226  -0.000000   0.000000
   46  C 13  S   -0.000000   0.241055   0.182089  -0.000000   0.000000
   47  C 13  X    0.175661   0.000000  -0.000000  -0.165642   0.148430
   48  C 13  Y   -0.000000  -0.112653   0.219315  -0.000000   0.000000
   49  C 13  Z   -0.000000   0.000000  -0.000000  -0.000000   0.000000
   50  C 14  S   -0.000000   0.082874  -0.061226  -0.000000   0.000000
   51  C 14  S   -0.000000  -0.241055   0.182089  -0.000000   0.000000
   52  C 14  X    0.175661   0.000000  -0.000000   0.165642   0.148430
   53  C 14  Y   -0.000000  -0.112653  -0.219315  -0.000000   0.000000
   54  C 14  Z   -0.000000   0.000000  -0.000000  -0.000000   0.000000
   55  H 15  S    0.089401   0.001879  -0.159761  -0.108368  -0.165381
   56  H 16  S   -0.089401   0.001879  -0.159761   0.108368   0.165381
   57  H 17  S    0.089401  -0.001879  -0.159761   0.108368  -0.165381
   58  H 18  S   -0.089401  -0.001879  -0.159761  -0.108368   0.165381

                     21         22         23         24         25
                   -0.6198    -0.5696    -0.5487    -0.5277    -0.5164
                     AG         B2U        AG         B1G        B3U 
    1  C  1  S   -0.004796  -0.034469   0.011200  -0.017913   0.017104
    2  C  1  S    0.022684   0.116684  -0.037726   0.058817  -0.053864
    3  C  1  X    0.261643   0.011925   0.048550  -0.122215   0.226174
    4  C  1  Y    0.023891  -0.024897  -0.278960   0.003475   0.072825
    5  C  1  Z   -0.000000   0.000000  -0.000000  -0.000000   0.000000
    6  C  2  S   -0.004796  -0.034469   0.011200   0.017913  -0.017104
    7  C  2  S    0.022684   0.116684  -0.037726  -0.058817   0.053864
    8  C  2  X   -0.261643  -0.011925  -0.048550  -0.122215   0.226174
    9  C  2  Y    0.023891  -0.024897  -0.278960  -0.003475  -0.072825
   10  C  2  Z   -0.000000   0.000000  -0.000000  -0.000000   0.000000
   11  C  3  S   -0.004796   0.034469   0.011200   0.017913   0.017104
   12  C  3  S    0.022684  -0.116684  -0.037726  -0.058817  -0.053864
   13  C  3  X    0.261643  -0.011925   0.048550   0.122215   0.226174
   14  C  3  Y   -0.023891  -0.024897   0.278960   0.003475  -0.072825
   15  C  3  Z   -0.000000   0.000000  -0.000000  -0.000000   0.000000
   16  C  4  S   -0.004796   0.034469   0.011200  -0.017913  -0.017104
   17  C  4  S    0.022684  -0.116684  -0.037726   0.058817   0.053864
   18  C  4  X   -0.261643   0.011925  -0.048550   0.122215   0.226174
   19  C  4  Y   -0.023891  -0.024897   0.278960  -0.003475   0.072825
   20  C  4  Z   -0.000000   0.000000  -0.000000  -0.000000   0.000000
   21  H  5  S    0.170748  -0.075168   0.136206   0.065708   0.118982
   22  H  6  S    0.170748  -0.075168   0.136206  -0.065708  -0.118982
   23  H  7  S    0.170748   0.075168   0.136206  -0.065708   0.118982
   24  H  8  S    0.170748   0.075168   0.136206   0.065708  -0.118982
   25  C  9  S    0.020699   0.019931   0.001879  -0.008076  -0.009407
   26  C  9  S   -0.060409  -0.069594  -0.007923   0.020266   0.036657
   27  C  9  X   -0.157443  -0.050570   0.147851  -0.009949  -0.255782
   28  C  9  Y   -0.103417   0.253441  -0.023816   0.286536  -0.023797
   29  C  9  Z   -0.000000   0.000000  -0.000000  -0.000000   0.000000
   30  C 10  S    0.020699   0.019931   0.001879   0.008076   0.009407
   31  C 10  S   -0.060409  -0.069594  -0.007923  -0.020266  -0.036657
   32  C 10  X    0.157443   0.050570  -0.147851  -0.009949  -0.255782
   33  C 10  Y   -0.103417   0.253441  -0.023816  -0.286536   0.023797
   34  C 10  Z   -0.000000   0.000000  -0.000000  -0.000000   0.000000
   35  C 11  S    0.020699  -0.019931   0.001879   0.008076  -0.009407
   36  C 11  S   -0.060409   0.069594  -0.007923  -0.020266   0.036657
   37  C 11  X   -0.157443   0.050570   0.147851   0.009949  -0.255782
   38  C 11  Y    0.103417   0.253441   0.023816   0.286536   0.023797
   39  C 11  Z   -0.000000   0.000000  -0.000000  -0.000000   0.000000
   40  C 12  S    0.020699  -0.019931   0.001879  -0.008076   0.009407
   41  C 12  S   -0.060409   0.069594  -0.007923   0.020266  -0.036657
   42  C 12  X    0.157443  -0.050570  -0.147851   0.009949  -0.255782
   43  C 12  Y    0.103417   0.253441   0.023816  -0.286536  -0.023797
   44  C 12  Z   -0.000000   0.000000  -0.000000  -0.000000   0.000000
   45  C 13  S   -0.038598  -0.071901  -0.019383  -0.000000   0.000000
   46  C 13  S    0.127261   0.241845   0.069431  -0.000000   0.000000
   47  C 13  X   -0.000000   0.000000  -0.000000   0.176794   0.281064
   48  C 13  Y   -0.080028  -0.060485   0.294042  -0.000000   0.000000
   49  C 13  Z   -0.000000   0.000000  -0.000000  -0.000000   0.000000
   50  C 14  S   -0.038598   0.071901  -0.019383  -0.000000   0.000000
   51  C 14  S    0.127261  -0.241845   0.069431  -0.000000   0.000000
   52  C 14  X   -0.000000   0.000000  -0.000000  -0.176794   0.281064
   53  C 14  Y    0.080028  -0.060485  -0.294042  -0.000000   0.000000
   54  C 14  Z   -0.000000   0.000000  -0.000000  -0.000000   0.000000
   55  H 15  S    0.049453  -0.252990   0.016465  -0.236562   0.038417
   56  H 16  S    0.049453  -0.252990   0.016465   0.236562  -0.038417
   57  H 17  S    0.049453   0.252990   0.016465   0.236562   0.038417
   58  H 18  S    0.049453   0.252990   0.016465  -0.236562  -0.038417

                     26         27         28         29         30
                   -0.5064    -0.4856    -0.4647    -0.4191    -0.4099
                     B2U        B1U        B3U        B1G        AG  
    1  C  1  S   -0.007904  -0.000000  -0.010364   0.006568  -0.002882
    2  C  1  S    0.036847  -0.000000   0.036091  -0.014090   0.008626
    3  C  1  X    0.269028  -0.000000  -0.030912   0.226142   0.007168
    4  C  1  Y   -0.018971  -0.000000   0.302810   0.024839   0.203194
    5  C  1  Z    0.000000   0.205562  -0.000000  -0.000000   0.000000
    6  C  2  S   -0.007904  -0.000000   0.010364  -0.006568  -0.002882
    7  C  2  S    0.036847  -0.000000  -0.036091   0.014090   0.008626
    8  C  2  X   -0.269028  -0.000000  -0.030912   0.226142  -0.007168
    9  C  2  Y   -0.018971  -0.000000  -0.302810  -0.024839   0.203194
   10  C  2  Z    0.000000   0.205562  -0.000000  -0.000000   0.000000
   11  C  3  S    0.007904  -0.000000  -0.010364  -0.006568  -0.002882
   12  C  3  S   -0.036847  -0.000000   0.036091   0.014090   0.008626
   13  C  3  X   -0.269028  -0.000000  -0.030912  -0.226142   0.007168
   14  C  3  Y   -0.018971  -0.000000  -0.302810   0.024839  -0.203194
   15  C  3  Z    0.000000   0.205562  -0.000000  -0.000000   0.000000
   16  C  4  S    0.007904  -0.000000   0.010364   0.006568  -0.002882
   17  C  4  S   -0.036847  -0.000000  -0.036091  -0.014090   0.008626
   18  C  4  X    0.269028  -0.000000  -0.030912  -0.226142  -0.007168
   19  C  4  Y   -0.018971  -0.000000   0.302810  -0.024839  -0.203194
   20  C  4  Z    0.000000   0.205562  -0.000000  -0.000000   0.000000
   21  H  5  S   -0.246180  -0.000000  -0.161242  -0.198778  -0.103056
   22  H  6  S   -0.246180  -0.000000   0.161242   0.198778  -0.103056
   23  H  7  S    0.246180  -0.000000  -0.161242   0.198778  -0.103056
   24  H  8  S    0.246180  -0.000000   0.161242  -0.198778  -0.103056
   25  C  9  S    0.033786  -0.000000  -0.002591  -0.006762   0.014691
   26  C  9  S   -0.113911  -0.000000   0.017673   0.026627  -0.047826
   27  C  9  X   -0.155657  -0.000000  -0.040125  -0.285081   0.055634
   28  C  9  Y   -0.115218  -0.000000  -0.183114   0.027662  -0.210509
   29  C  9  Z    0.000000   0.242688  -0.000000  -0.000000   0.000000
   30  C 10  S    0.033786  -0.000000   0.002591   0.006762   0.014691
   31  C 10  S   -0.113911  -0.000000  -0.017673  -0.026627  -0.047826
   32  C 10  X    0.155657  -0.000000  -0.040125  -0.285081  -0.055634
   33  C 10  Y   -0.115218  -0.000000   0.183114  -0.027662  -0.210509
   34  C 10  Z    0.000000   0.242688  -0.000000  -0.000000   0.000000
   35  C 11  S   -0.033786  -0.000000  -0.002591   0.006762   0.014691
   36  C 11  S    0.113911  -0.000000   0.017673  -0.026627  -0.047826
   37  C 11  X    0.155657  -0.000000  -0.040125   0.285081   0.055634
   38  C 11  Y   -0.115218  -0.000000   0.183114   0.027662   0.210509
   39  C 11  Z    0.000000   0.242688  -0.000000  -0.000000   0.000000
   40  C 12  S   -0.033786  -0.000000   0.002591  -0.006762   0.014691
   41  C 12  S    0.113911  -0.000000  -0.017673   0.026627  -0.047826
   42  C 12  X   -0.155657  -0.000000  -0.040125   0.285081  -0.055634
   43  C 12  Y   -0.115218  -0.000000  -0.183114  -0.027662   0.210509
   44  C 12  Z    0.000000   0.242688  -0.000000  -0.000000   0.000000
   45  C 13  S   -0.024058  -0.000000  -0.000000  -0.000000  -0.001717
   46  C 13  S    0.081100  -0.000000  -0.000000  -0.000000   0.004193
   47  C 13  X    0.000000  -0.000000  -0.122174   0.286245   0.000000
   48  C 13  Y   -0.066871  -0.000000  -0.000000  -0.000000   0.361007
   49  C 13  Z    0.000000   0.343105  -0.000000  -0.000000   0.000000
   50  C 14  S    0.024058  -0.000000  -0.000000  -0.000000  -0.001717
   51  C 14  S   -0.081100  -0.000000  -0.000000  -0.000000   0.004193
   52  C 14  X    0.000000  -0.000000  -0.122174  -0.286245   0.000000
   53  C 14  Y   -0.066871  -0.000000  -0.000000  -0.000000  -0.361007
   54  C 14  Z    0.000000   0.343105  -0.000000  -0.000000   0.000000
   55  H 15  S    0.048919  -0.000000   0.186869  -0.015466   0.228187
   56  H 16  S    0.048919  -0.000000  -0.186869   0.015466   0.228187
   57  H 17  S   -0.048919  -0.000000   0.186869   0.015466   0.228187
   58  H 18  S   -0.048919  -0.000000  -0.186869  -0.015466   0.228187

                     31         32         33         34         35
                   -0.3957    -0.3306    -0.2598    -0.2253     0.2036
                     B2G        B3G        B1U        AU         B2G 
    1  C  1  S   -0.000000   0.000000   0.000000   0.000000  -0.000000
    2  C  1  S   -0.000000   0.000000   0.000000   0.000000  -0.000000
    3  C  1  X   -0.000000   0.000000   0.000000   0.000000  -0.000000
    4  C  1  Y   -0.000000   0.000000   0.000000   0.000000  -0.000000
    5  C  1  Z    0.356372   0.178773  -0.353950   0.263402  -0.302215
    6  C  2  S   -0.000000   0.000000   0.000000   0.000000  -0.000000
    7  C  2  S   -0.000000   0.000000   0.000000   0.000000  -0.000000
    8  C  2  X   -0.000000   0.000000   0.000000   0.000000  -0.000000
    9  C  2  Y   -0.000000   0.000000   0.000000   0.000000  -0.000000
   10  C  2  Z   -0.356372   0.178773  -0.353950  -0.263402   0.302215
   11  C  3  S   -0.000000   0.000000   0.000000   0.000000  -0.000000
   12  C  3  S   -0.000000   0.000000   0.000000   0.000000  -0.000000
   13  C  3  X   -0.000000   0.000000   0.000000   0.000000  -0.000000
   14  C  3  Y   -0.000000   0.000000   0.000000   0.000000  -0.000000
   15  C  3  Z    0.356372  -0.178773  -0.353950  -0.263402  -0.302215
   16  C  4  S   -0.000000   0.000000   0.000000   0.000000  -0.000000
   17  C  4  S   -0.000000   0.000000   0.000000   0.000000  -0.000000
   18  C  4  X   -0.000000   0.000000   0.000000   0.000000  -0.000000
   19  C  4  Y   -0.000000   0.000000   0.000000   0.000000  -0.000000
   20  C  4  Z   -0.356372  -0.178773  -0.353950   0.263402   0.302215
   21  H  5  S   -0.000000   0.000000   0.000000   0.000000  -0.000000
   22  H  6  S   -0.000000   0.000000   0.000000   0.000000  -0.000000
   23  H  7  S   -0.000000   0.000000   0.000000   0.000000  -0.000000
   24  H  8  S   -0.000000   0.000000   0.000000   0.000000  -0.000000
   25  C  9  S   -0.000000   0.000000   0.000000   0.000000  -0.000000
   26  C  9  S   -0.000000   0.000000   0.000000   0.000000  -0.000000
   27  C  9  X   -0.000000   0.000000   0.000000   0.000000  -0.000000
   28  C  9  Y   -0.000000   0.000000   0.000000   0.000000  -0.000000
   29  C  9  Z    0.236409   0.354946  -0.003084   0.398280   0.459206
   30  C 10  S   -0.000000   0.000000   0.000000   0.000000  -0.000000
   31  C 10  S   -0.000000   0.000000   0.000000   0.000000  -0.000000
   32  C 10  X   -0.000000   0.000000   0.000000   0.000000  -0.000000
   33  C 10  Y   -0.000000   0.000000   0.000000   0.000000  -0.000000
   34  C 10  Z   -0.236409   0.354946  -0.003084  -0.398280  -0.459206
   35  C 11  S   -0.000000   0.000000   0.000000   0.000000  -0.000000
   36  C 11  S   -0.000000   0.000000   0.000000   0.000000  -0.000000
   37  C 11  X   -0.000000   0.000000   0.000000   0.000000  -0.000000
   38  C 11  Y   -0.000000   0.000000   0.000000   0.000000  -0.000000
   39  C 11  Z    0.236409  -0.354946  -0.003084  -0.398280   0.459206
   40  C 12  S   -0.000000   0.000000   0.000000   0.000000  -0.000000
   41  C 12  S   -0.000000   0.000000   0.000000   0.000000  -0.000000
   42  C 12  X   -0.000000   0.000000   0.000000   0.000000  -0.000000
   43  C 12  Y   -0.000000   0.000000   0.000000   0.000000  -0.000000
   44  C 12  Z   -0.236409  -0.354946  -0.003084   0.398280  -0.459206
   45  C 13  S   -0.000000   0.000000   0.000000   0.000000  -0.000000
   46  C 13  S   -0.000000   0.000000   0.000000   0.000000  -0.000000
   47  C 13  X   -0.000000   0.000000   0.000000   0.000000  -0.000000
   48  C 13  Y   -0.000000   0.000000   0.000000   0.000000  -0.000000
   49  C 13  Z   -0.000000   0.288782   0.426505   0.000000  -0.000000
   50  C 14  S   -0.000000   0.000000   0.000000   0.000000  -0.000000
   51  C 14  S   -0.000000   0.000000   0.000000   0.000000  -0.000000
   52  C 14  X   -0.000000   0.000000   0.000000   0.000000  -0.000000
   53  C 14  Y   -0.000000   0.000000   0.000000   0.000000  -0.000000
   54  C 14  Z   -0.000000  -0.288782   0.426505   0.000000  -0.000000
   55  H 15  S   -0.000000   0.000000   0.000000   0.000000  -0.000000
   56  H 16  S   -0.000000   0.000000   0.000000   0.000000  -0.000000
   57  H 17  S   -0.000000   0.000000   0.000000   0.000000  -0.000000
   58  H 18  S   -0.000000   0.000000   0.000000   0.000000  -0.000000

                     36         37         38         39         40
                    0.2464     0.3305     0.4149     0.5522     0.5782
                     B3G        B1U        AU         B3G        AG  
    1  C  1  S    0.000000  -0.000000   0.000000  -0.000000   0.048803
    2  C  1  S    0.000000  -0.000000   0.000000  -0.000000  -0.305368
    3  C  1  X    0.000000  -0.000000   0.000000  -0.000000  -0.265686
    4  C  1  Y    0.000000  -0.000000   0.000000  -0.000000   0.137898
    5  C  1  Z   -0.435791  -0.224905   0.512227   0.331409  -0.000000
    6  C  2  S    0.000000  -0.000000   0.000000  -0.000000   0.048803
    7  C  2  S    0.000000  -0.000000   0.000000  -0.000000  -0.305368
    8  C  2  X    0.000000  -0.000000   0.000000  -0.000000   0.265686
    9  C  2  Y    0.000000  -0.000000   0.000000  -0.000000   0.137898
   10  C  2  Z   -0.435791  -0.224905  -0.512227   0.331409  -0.000000
   11  C  3  S    0.000000  -0.000000   0.000000  -0.000000   0.048803
   12  C  3  S    0.000000  -0.000000   0.000000  -0.000000  -0.305368
   13  C  3  X    0.000000  -0.000000   0.000000  -0.000000  -0.265686
   14  C  3  Y    0.000000  -0.000000   0.000000  -0.000000  -0.137898
   15  C  3  Z    0.435791  -0.224905  -0.512227  -0.331409  -0.000000
   16  C  4  S    0.000000  -0.000000   0.000000  -0.000000   0.048803
   17  C  4  S    0.000000  -0.000000   0.000000  -0.000000  -0.305368
   18  C  4  X    0.000000  -0.000000   0.000000  -0.000000   0.265686
   19  C  4  Y    0.000000  -0.000000   0.000000  -0.000000  -0.137898
   20  C  4  Z    0.435791  -0.224905   0.512227  -0.331409  -0.000000
   21  H  5  S    0.000000  -0.000000   0.000000  -0.000000   0.487660
   22  H  6  S    0.000000  -0.000000   0.000000  -0.000000   0.487660
   23  H  7  S    0.000000  -0.000000   0.000000  -0.000000   0.487660
   24  H  8  S    0.000000  -0.000000   0.000000  -0.000000   0.487660
   25  C  9  S    0.000000  -0.000000   0.000000  -0.000000   0.009631
   26  C  9  S    0.000000  -0.000000   0.000000  -0.000000  -0.067767
   27  C  9  X    0.000000  -0.000000   0.000000  -0.000000  -0.154395
   28  C  9  Y    0.000000  -0.000000   0.000000  -0.000000   0.285185
   29  C  9  Z    0.000234   0.468106  -0.336015  -0.396552  -0.000000
   30  C 10  S    0.000000  -0.000000   0.000000  -0.000000   0.009631
   31  C 10  S    0.000000  -0.000000   0.000000  -0.000000  -0.067767
   32  C 10  X    0.000000  -0.000000   0.000000  -0.000000   0.154395
   33  C 10  Y    0.000000  -0.000000   0.000000  -0.000000   0.285185
   34  C 10  Z    0.000234   0.468106   0.336015  -0.396552  -0.000000
   35  C 11  S    0.000000  -0.000000   0.000000  -0.000000   0.009631
   36  C 11  S    0.000000  -0.000000   0.000000  -0.000000  -0.067767
   37  C 11  X    0.000000  -0.000000   0.000000  -0.000000  -0.154395
   38  C 11  Y    0.000000  -0.000000   0.000000  -0.000000  -0.285185
   39  C 11  Z   -0.000234   0.468106   0.336015   0.396552  -0.000000
   40  C 12  S    0.000000  -0.000000   0.000000  -0.000000   0.009631
   41  C 12  S    0.000000  -0.000000   0.000000  -0.000000  -0.067767
   42  C 12  X    0.000000  -0.000000   0.000000  -0.000000   0.154395
   43  C 12  Y    0.000000  -0.000000   0.000000  -0.000000  -0.285185
   44  C 12  Z   -0.000234   0.468106  -0.336015   0.396552  -0.000000
   45  C 13  S    0.000000  -0.000000   0.000000  -0.000000   0.050495
   46  C 13  S    0.000000  -0.000000   0.000000  -0.000000  -0.313785
   47  C 13  X    0.000000  -0.000000   0.000000  -0.000000  -0.000000
   48  C 13  Y    0.000000  -0.000000   0.000000  -0.000000   0.120599
   49  C 13  Z    0.515195  -0.394476   0.000000   0.577001  -0.000000
   50  C 14  S    0.000000  -0.000000   0.000000  -0.000000   0.050495
   51  C 14  S    0.000000  -0.000000   0.000000  -0.000000  -0.313785
   52  C 14  X    0.000000  -0.000000   0.000000  -0.000000  -0.000000
   53  C 14  Y    0.000000  -0.000000   0.000000  -0.000000  -0.120599
   54  C 14  Z   -0.515195  -0.394476   0.000000  -0.577001  -0.000000
   55  H 15  S    0.000000  -0.000000   0.000000  -0.000000   0.316350
   56  H 16  S    0.000000  -0.000000   0.000000  -0.000000   0.316350
   57  H 17  S    0.000000  -0.000000   0.000000  -0.000000   0.316350
   58  H 18  S    0.000000  -0.000000   0.000000  -0.000000   0.316350

                     41         42         43         44         45
                    0.6022     0.6124     0.6677     0.6965     0.7112
                     B2U        B3U        B3U        B1G        B2U 
    1  C  1  S    0.009300   0.034805  -0.025123  -0.046591  -0.107838
    2  C  1  S   -0.063229  -0.227488   0.153910   0.283170   0.676404
    3  C  1  X   -0.038440  -0.332041   0.221528  -0.108209   0.071952
    4  C  1  Y    0.277557   0.116223  -0.092566   0.290219  -0.043254
    5  C  1  Z    0.000000   0.000000  -0.000000   0.000000  -0.000000
    6  C  2  S    0.009300  -0.034805   0.025123   0.046591  -0.107838
    7  C  2  S   -0.063229   0.227488  -0.153910  -0.283170   0.676404
    8  C  2  X    0.038440  -0.332041   0.221528  -0.108209  -0.071952
    9  C  2  Y    0.277557  -0.116223   0.092566  -0.290219  -0.043254
   10  C  2  Z    0.000000   0.000000  -0.000000   0.000000  -0.000000
   11  C  3  S   -0.009300   0.034805  -0.025123   0.046591   0.107838
   12  C  3  S    0.063229  -0.227488   0.153910  -0.283170  -0.676404
   13  C  3  X    0.038440  -0.332041   0.221528   0.108209  -0.071952
   14  C  3  Y    0.277557  -0.116223   0.092566   0.290219  -0.043254
   15  C  3  Z    0.000000   0.000000  -0.000000   0.000000  -0.000000
   16  C  4  S   -0.009300  -0.034805   0.025123  -0.046591   0.107838
   17  C  4  S    0.063229   0.227488  -0.153910   0.283170  -0.676404
   18  C  4  X   -0.038440  -0.332041   0.221528   0.108209   0.071952
   19  C  4  Y    0.277557   0.116223  -0.092566  -0.290219  -0.043254
   20  C  4  Z    0.000000   0.000000  -0.000000   0.000000  -0.000000
   21  H  5  S   -0.215184   0.463170  -0.320653  -0.069429   0.427166
   22  H  6  S   -0.215184  -0.463170   0.320653   0.069429   0.427166
   23  H  7  S    0.215184   0.463170  -0.320653   0.069429  -0.427166
   24  H  8  S    0.215184  -0.463170   0.320653  -0.069429  -0.427166
   25  C  9  S    0.014109   0.063255   0.073968   0.068114   0.092823
   26  C  9  S   -0.086176  -0.398535  -0.460202  -0.434828  -0.581072
   27  C  9  X   -0.035145   0.017035   0.333770  -0.005947  -0.008857
   28  C  9  Y    0.396404   0.175442   0.055033   0.350672  -0.011585
   29  C  9  Z    0.000000   0.000000  -0.000000   0.000000  -0.000000
   30  C 10  S    0.014109  -0.063255  -0.073968  -0.068114   0.092823
   31  C 10  S   -0.086176   0.398535   0.460202   0.434828  -0.581072
   32  C 10  X    0.035145   0.017035   0.333770  -0.005947   0.008857
   33  C 10  Y    0.396404  -0.175442  -0.055033  -0.350672  -0.011585
   34  C 10  Z    0.000000   0.000000  -0.000000   0.000000  -0.000000
   35  C 11  S   -0.014109   0.063255   0.073968  -0.068114  -0.092823
   36  C 11  S    0.086176  -0.398535  -0.460202   0.434828   0.581072
   37  C 11  X    0.035145   0.017035   0.333770   0.005947   0.008857
   38  C 11  Y    0.396404  -0.175442  -0.055033   0.350672  -0.011585
   39  C 11  Z    0.000000   0.000000  -0.000000   0.000000  -0.000000
   40  C 12  S   -0.014109  -0.063255  -0.073968   0.068114  -0.092823
   41  C 12  S    0.086176   0.398535   0.460202  -0.434828   0.581072
   42  C 12  X   -0.035145   0.017035   0.333770   0.005947  -0.008857
   43  C 12  Y    0.396404   0.175442   0.055033  -0.350672  -0.011585
   44  C 12  Z    0.000000   0.000000  -0.000000   0.000000  -0.000000
   45  C 13  S   -0.020179   0.000000  -0.000000   0.000000  -0.078725
   46  C 13  S    0.107740   0.000000  -0.000000   0.000000   0.481070
   47  C 13  X    0.000000   0.088034   0.567972   0.045390  -0.000000
   48  C 13  Y    0.461420   0.000000  -0.000000   0.000000  -0.104283
   49  C 13  Z    0.000000   0.000000  -0.000000   0.000000  -0.000000
   50  C 14  S    0.020179   0.000000  -0.000000   0.000000   0.078725
   51  C 14  S   -0.107740   0.000000  -0.000000   0.000000  -0.481070
   52  C 14  X    0.000000   0.088034   0.567972  -0.045390  -0.000000
   53  C 14  Y    0.461420   0.000000  -0.000000   0.000000  -0.104283
   54  C 14  Z    0.000000   0.000000  -0.000000   0.000000  -0.000000
   55  H 15  S    0.453531   0.407761   0.302959   0.572109   0.272005
   56  H 16  S    0.453531  -0.407761  -0.302959  -0.572109   0.272005
   57  H 17  S   -0.453531   0.407761   0.302959  -0.572109  -0.272005
   58  H 18  S   -0.453531  -0.407761  -0.302959   0.572109  -0.272005

                     46         47         48         49         50
                    0.7145     0.7243     0.7372     0.8055     0.8511
                     B2U        AG         B1G        AG         B1G 
    1  C  1  S    0.076091   0.056367  -0.124426  -0.016326   0.028196
    2  C  1  S   -0.492417  -0.362925   0.801090   0.106456  -0.201004
    3  C  1  X    0.022377   0.279505   0.210494   0.363008   0.155790
    4  C  1  Y   -0.299135   0.203311   0.036804  -0.132309  -0.521440
    5  C  1  Z   -0.000000   0.000000  -0.000000  -0.000000   0.000000
    6  C  2  S    0.076091   0.056367   0.124426  -0.016326  -0.028196
    7  C  2  S   -0.492417  -0.362925  -0.801090   0.106456   0.201004
    8  C  2  X   -0.022377  -0.279505   0.210494  -0.363008   0.155790
    9  C  2  Y   -0.299135   0.203311  -0.036804  -0.132309   0.521440
   10  C  2  Z   -0.000000   0.000000  -0.000000  -0.000000   0.000000
   11  C  3  S   -0.076091   0.056367   0.124426  -0.016326  -0.028196
   12  C  3  S    0.492417  -0.362925  -0.801090   0.106456   0.201004
   13  C  3  X   -0.022377   0.279505  -0.210494   0.363008  -0.155790
   14  C  3  Y   -0.299135  -0.203311   0.036804   0.132309  -0.521440
   15  C  3  Z   -0.000000   0.000000  -0.000000  -0.000000   0.000000
   16  C  4  S   -0.076091   0.056367  -0.124426  -0.016326   0.028196
   17  C  4  S    0.492417  -0.362925   0.801090   0.106456  -0.201004
   18  C  4  X    0.022377  -0.279505  -0.210494  -0.363008  -0.155790
   19  C  4  Y   -0.299135  -0.203311  -0.036804   0.132309   0.521440
   20  C  4  Z   -0.000000   0.000000  -0.000000  -0.000000   0.000000
   21  H  5  S   -0.079183   0.045046   0.534157  -0.364905   0.243033
   22  H  6  S   -0.079183   0.045046  -0.534157  -0.364905  -0.243033
   23  H  7  S    0.079183   0.045046  -0.534157  -0.364905  -0.243033
   24  H  8  S    0.079183   0.045046   0.534157  -0.364905   0.243033
   25  C  9  S    0.034273  -0.122608   0.018365   0.007132   0.061677
   26  C  9  S   -0.212999   0.791111  -0.104438  -0.041104  -0.422099
   27  C  9  X    0.359501   0.028305  -0.218731  -0.018079   0.194647
   28  C  9  Y   -0.078848   0.088845  -0.141599   0.504398   0.040459
   29  C  9  Z   -0.000000   0.000000  -0.000000  -0.000000   0.000000
   30  C 10  S    0.034273  -0.122608  -0.018365   0.007132  -0.061677
   31  C 10  S   -0.212999   0.791111   0.104438  -0.041104   0.422099
   32  C 10  X   -0.359501  -0.028305  -0.218731   0.018079   0.194647
   33  C 10  Y   -0.078848   0.088845   0.141599   0.504398  -0.040459
   34  C 10  Z   -0.000000   0.000000  -0.000000  -0.000000   0.000000
   35  C 11  S   -0.034273  -0.122608  -0.018365   0.007132  -0.061677
   36  C 11  S    0.212999   0.791111   0.104438  -0.041104   0.422099
   37  C 11  X   -0.359501   0.028305   0.218731  -0.018079  -0.194647
   38  C 11  Y   -0.078848  -0.088845  -0.141599  -0.504398   0.040459
   39  C 11  Z   -0.000000   0.000000  -0.000000  -0.000000   0.000000
   40  C 12  S   -0.034273  -0.122608   0.018365   0.007132   0.061677
   41  C 12  S    0.212999   0.791111  -0.104438  -0.041104  -0.422099
   42  C 12  X    0.359501  -0.028305   0.218731   0.018079  -0.194647
   43  C 12  Y   -0.078848  -0.088845   0.141599  -0.504398  -0.040459
   44  C 12  Z   -0.000000   0.000000  -0.000000  -0.000000   0.000000
   45  C 13  S   -0.164867   0.085194  -0.000000   0.031460   0.000000
   46  C 13  S    1.043005  -0.537372  -0.000000  -0.224075   0.000000
   47  C 13  X   -0.000000   0.000000  -0.035709  -0.000000   0.618962
   48  C 13  Y    0.231371   0.308573  -0.000000   0.028374   0.000000
   49  C 13  Z   -0.000000   0.000000  -0.000000  -0.000000   0.000000
   50  C 14  S    0.164867   0.085194  -0.000000   0.031460   0.000000
   51  C 14  S   -1.043005  -0.537372  -0.000000  -0.224075   0.000000
   52  C 14  X   -0.000000   0.000000   0.035709  -0.000000  -0.618962
   53  C 14  Y    0.231371  -0.308573  -0.000000  -0.028374   0.000000
   54  C 14  Z   -0.000000   0.000000  -0.000000  -0.000000   0.000000
   55  H 15  S    0.036894  -0.281241  -0.057688   0.426889   0.209960
   56  H 16  S    0.036894  -0.281241   0.057688   0.426889  -0.209960
   57  H 17  S   -0.036894  -0.281241   0.057688   0.426889  -0.209960
   58  H 18  S   -0.036894  -0.281241  -0.057688   0.426889   0.209960

                     51         52         53         54         55
                    0.8539     0.8704     0.9456     0.9554     1.0238
                     B3U        B2U        B3U        AG         B2U 
    1  C  1  S   -0.080530  -0.022148   0.014897   0.055278  -0.037986
    2  C  1  S    0.561967   0.152985  -0.111879  -0.412693   0.272244
    3  C  1  X   -0.206894   0.466222   0.313900   0.154541  -0.219775
    4  C  1  Y   -0.352515   0.188519  -0.005421   0.263823   0.630257
    5  C  1  Z    0.000000  -0.000000   0.000000   0.000000  -0.000000
    6  C  2  S    0.080530  -0.022148  -0.014897   0.055278  -0.037986
    7  C  2  S   -0.561967   0.152985   0.111879  -0.412693   0.272244
    8  C  2  X   -0.206894  -0.466222   0.313900  -0.154541   0.219775
    9  C  2  Y    0.352515   0.188519   0.005421   0.263823   0.630257
   10  C  2  Z    0.000000  -0.000000   0.000000   0.000000  -0.000000
   11  C  3  S   -0.080530   0.022148   0.014897   0.055278   0.037986
   12  C  3  S    0.561967  -0.152985  -0.111879  -0.412693  -0.272244
   13  C  3  X   -0.206894  -0.466222   0.313900   0.154541   0.219775
   14  C  3  Y    0.352515   0.188519   0.005421  -0.263823   0.630257
   15  C  3  Z    0.000000  -0.000000   0.000000   0.000000  -0.000000
   16  C  4  S    0.080530   0.022148  -0.014897   0.055278   0.037986
   17  C  4  S   -0.561967  -0.152985   0.111879  -0.412693  -0.272244
   18  C  4  X   -0.206894   0.466222   0.313900  -0.154541  -0.219775
   19  C  4  Y   -0.352515   0.188519  -0.005421  -0.263823   0.630257
   20  C  4  Z    0.000000  -0.000000   0.000000   0.000000  -0.000000
   21  H  5  S   -0.214891   0.302696  -0.161867   0.137282  -0.252315
   22  H  6  S    0.214891   0.302696   0.161867   0.137282  -0.252315
   23  H  7  S   -0.214891  -0.302696  -0.161867   0.137282   0.252315
   24  H  8  S    0.214891  -0.302696   0.161867   0.137282   0.252315
   25  C  9  S    0.061080  -0.067053  -0.036825   0.009418   0.016499
   26  C  9  S   -0.419616   0.477445   0.265192  -0.057433  -0.108527
   27  C  9  X   -0.519271   0.043939  -0.055696   0.629057   0.275216
   28  C  9  Y   -0.023682  -0.074811   0.599820   0.107448  -0.327940
   29  C  9  Z    0.000000  -0.000000   0.000000   0.000000  -0.000000
   30  C 10  S   -0.061080  -0.067053   0.036825   0.009418   0.016499
   31  C 10  S    0.419616   0.477445  -0.265192  -0.057433  -0.108527
   32  C 10  X   -0.519271  -0.043939  -0.055696  -0.629057  -0.275216
   33  C 10  Y    0.023682  -0.074811  -0.599820   0.107448  -0.327940
   34  C 10  Z    0.000000  -0.000000   0.000000   0.000000  -0.000000
   35  C 11  S    0.061080   0.067053  -0.036825   0.009418  -0.016499
   36  C 11  S   -0.419616  -0.477445   0.265192  -0.057433   0.108527
   37  C 11  X   -0.519271  -0.043939  -0.055696   0.629057  -0.275216
   38  C 11  Y    0.023682  -0.074811  -0.599820  -0.107448  -0.327940
   39  C 11  Z    0.000000  -0.000000   0.000000   0.000000  -0.000000
   40  C 12  S   -0.061080   0.067053   0.036825   0.009418  -0.016499
   41  C 12  S    0.419616  -0.477445  -0.265192  -0.057433   0.108527
   42  C 12  X   -0.519271   0.043939  -0.055696  -0.629057   0.275216
   43  C 12  Y   -0.023682  -0.074811   0.599820  -0.107448  -0.327940
   44  C 12  Z    0.000000  -0.000000   0.000000   0.000000  -0.000000
   45  C 13  S    0.000000  -0.032339   0.000000  -0.086103  -0.075141
   46  C 13  S    0.000000   0.230878   0.000000   0.612235   0.535656
   47  C 13  X   -0.131273  -0.000000  -0.544628   0.000000  -0.000000
   48  C 13  Y    0.000000   0.666043   0.000000  -0.441024  -0.140106
   49  C 13  Z    0.000000  -0.000000   0.000000   0.000000  -0.000000
   50  C 14  S    0.000000   0.032339   0.000000  -0.086103   0.075141
   51  C 14  S    0.000000  -0.230878   0.000000   0.612235  -0.535656
   52  C 14  X   -0.131273  -0.000000  -0.544628   0.000000  -0.000000
   53  C 14  Y    0.000000   0.666043   0.000000   0.441024  -0.140106
   54  C 14  Z    0.000000  -0.000000   0.000000   0.000000  -0.000000
   55  H 15  S    0.172486  -0.225206   0.353363   0.105670  -0.174724
   56  H 16  S   -0.172486  -0.225206  -0.353363   0.105670  -0.174724
   57  H 17  S    0.172486   0.225206   0.353363   0.105670   0.174724
   58  H 18  S   -0.172486   0.225206  -0.353363   0.105670   0.174724

                     56         57         58
                    1.0288     1.1494     1.1684
                     B1G        B2U        B1G 
    1  C  1  S    0.015296  -0.033041  -0.040153
    2  C  1  S   -0.117524   0.258435   0.301931
    3  C  1  X    0.515663  -0.459571  -0.366584
    4  C  1  Y    0.437994  -0.190877   0.293525
    5  C  1  Z    0.000000   0.000000  -0.000000
    6  C  2  S   -0.015296  -0.033041   0.040153
    7  C  2  S    0.117524   0.258435  -0.301931
    8  C  2  X    0.515663   0.459571  -0.366584
    9  C  2  Y   -0.437994  -0.190877  -0.293525
   10  C  2  Z    0.000000   0.000000  -0.000000
   11  C  3  S   -0.015296   0.033041   0.040153
   12  C  3  S    0.117524  -0.258435  -0.301931
   13  C  3  X   -0.515663   0.459571   0.366584
   14  C  3  Y    0.437994  -0.190877   0.293525
   15  C  3  Z    0.000000   0.000000  -0.000000
   16  C  4  S    0.015296   0.033041  -0.040153
   17  C  4  S   -0.117524  -0.258435   0.301931
   18  C  4  X   -0.515663  -0.459571   0.366584
   19  C  4  Y   -0.437994  -0.190877  -0.293525
   20  C  4  Z    0.000000   0.000000  -0.000000
   21  H  5  S    0.116652  -0.111637  -0.192838
   22  H  6  S   -0.116652  -0.111637   0.192838
   23  H  7  S   -0.116652   0.111637   0.192838
   24  H  8  S    0.116652   0.111637  -0.192838
   25  C  9  S   -0.041395   0.019258   0.051079
   26  C  9  S    0.315190  -0.150314  -0.389938
   27  C  9  X    0.520591  -0.472781   0.149064
   28  C  9  Y    0.086103  -0.308700  -0.491081
   29  C  9  Z    0.000000   0.000000  -0.000000
   30  C 10  S    0.041395   0.019258  -0.051079
   31  C 10  S   -0.315190  -0.150314   0.389938
   32  C 10  X    0.520591   0.472781   0.149064
   33  C 10  Y   -0.086103  -0.308700   0.491081
   34  C 10  Z    0.000000   0.000000  -0.000000
   35  C 11  S    0.041395  -0.019258  -0.051079
   36  C 11  S   -0.315190   0.150314   0.389938
   37  C 11  X   -0.520591   0.472781  -0.149064
   38  C 11  Y    0.086103  -0.308700  -0.491081
   39  C 11  Z    0.000000   0.000000  -0.000000
   40  C 12  S   -0.041395  -0.019258   0.051079
   41  C 12  S    0.315190   0.150314  -0.389938
   42  C 12  X   -0.520591  -0.472781  -0.149064
   43  C 12  Y   -0.086103  -0.308700   0.491081
   44  C 12  Z    0.000000   0.000000  -0.000000
   45  C 13  S    0.000000  -0.029488  -0.000000
   46  C 13  S    0.000000   0.214426  -0.000000
   47  C 13  X    0.249259   0.000000   0.734913
[...]
 TOTAL WALL CLOCK TIME=          0.6 SECONDS, CPU UTILIZATION IS   136.82%

   -------------------------------------------------------------------
   OPEN-SHELL COUPLED-CLUSTER PROGRAM:
   M. WLOCH, J.R. GOUR, J. SHEN, J.E. DEUSTUA, I. MAGOULAS, P. PIECUCH
   -------------------------------------------------------------------

 ***************************************************************
 THE FOLLOWING PAPERS SHOULD BE CITED WHEN USING OPEN-SHELL CCSD
 AND/OR CR-CCL COUPLED-CLUSTER OPTIONS:
 P. PIECUCH AND M. WLOCH,
   J. CHEM. PHYS. 123, 224105/1-10 (2005).
 M. WLOCH, J.R. GOUR, AND P. PIECUCH,
   J. PHYS. CHEM. A, 111, 11359-11382 (2007).

 THE FOLLOWING PAPERS SHOULD BE CITED IF USING THE EA-EOMCC OR IP-EOMCC OPTIONS:
 J. R. GOUR, P. PIECUCH, AND M. WLOCH,
   J. CHEM. PHYS. 123, 134113/1-14 (2005).
 J. R. GOUR AND P. PIECUCH,
   J. CHEM. PHYS. 125, 234107/1-17 (2006).

 THE FOLLOWING PAPERS SHOULD BE CITED IF USING THE CCSDt AND CC(t;3) OPTIONS:
 J. SHEN AND P. PIECUCH, CHEM. PHYS. 401, 180-202 (2012);
 J. SHEN AND P. PIECUCH, J. CHEM. PHYS. 136, 144104-1 - 144104-16 (2012).
 THE FOLLOWING PAPERS SHOULD BE CITED IF USING THE DEA-EOMCC OR DIP-EOMCC OPTIONS:
 J. SHEN AND P. PIECUCH,
   J. CHEM. PHYS. 138, 194102/1-16 (2013);
 J. SHEN AND P. PIECUCH,
   MOL. PHYS. 112, 868-885 (2014);
 A.O. AJALA, J. SHEN, AND P. PIECUCH,
   J. PHYS. CHEM. A 121, 3469-3485 (2017).

 IN ADDITION, THE USE OF THE ACP(1) ARRAY IN $CCINP
 SHOULD REFERENCE
 I. MAGOULAS, J. SHEN, AND P. PIECUCH, MOL. PHYS. 120, E2057365 (2022).
 ***************************************************************

 ROHF REFERENCE STATE WILL BE USED, MULTIPLICITY=  1

              ------------------------------
              OPEN SHELL CC INPUT PARAMETERS
              ------------------------------
     CC SPIN MULTIPLICITY (MULT IN $CCINP)    =    1
     IMPLYING NO. OF OCCUP. ALPHA =   24, PLUS  10 FROZEN CORES
              NO. OF OCCUP.  BETA =   24, PLUS  10 FROZEN CORES
              NO. OF VIRT.  ALPHA =   24
              NO. OF VIRT.   BETA =   24
     MAX.NO. OF CC AND LAMBDA ITERS (MAXCC)   =  800
     CC AND LAMBDA CONVERGENCE (FROM ICONV)   =   1.000E-07
     CC EQUATION RESTART OPTION (KREST)       =    0
     CC DIIS MICROITERATIONS (KMICRO)         =    6
     LAMDA EQUATION RESTART OPTION (LREST)    =    0
     LAMBDA DIIS MICROITERATIONS (LMICRO)     =    5
     MM(2,3) CODE SELECTION (IOPMET)          =    0
     OCCUPIED ACTIVE ALPHA ORBITALS           =    0
     OCCUPIED ACTIVE BETA ORBITALS (NACTO)    =    0
     UNOCCUPIED ACTIVE ALPHA ORBITALS (NACTU) =   -1
     UNOCCUPIED ACTIVE BETA ORBITALS          =   -1
     SHIFT ENERGY (SHIFT)                     =   0.000E+00

 MEMORY NEEDED BY FOCK PREPARATION   :        16084 WORDS
 MEMORY NEEDED BY INT. PASS 1        :      4674864 WORDS
 MEMORY NEEDED BY INT. PASS 2        :      1357104 WORDS
 MEMORY NEEDED BY INT. PASS 3,...,  3:      1025328 WORDS
 PASS=  1, WILL PROCESS [OO|OO], [VO|OO], [VV|OO], AND [VO|VO] INTEGRALS.
           WROTE         331776 WORDS OF <OA OA||OA OA> INTS TO FILE  74
           WROTE         331776 WORDS OF <OB OB||OB OB> INTS TO FILE  75
           WROTE         331776 WORDS OF <OA OB||OA OB> INTS TO FILE  76
           WROTE         331776 WORDS OF <VA OA||OA OA> INTS TO FILE  77
           WROTE         331776 WORDS OF <VB OB||OB OB> INTS TO FILE  78
           WROTE         331776 WORDS OF <VA OB||OA OB> INTS TO FILE  79
           WROTE         331776 WORDS OF <OA VB||OA OB> INTS TO FILE  80
           WROTE         331776 WORDS OF (VA OA  VA OA) INTS TO FILE  81
           WROTE         331776 WORDS OF (VB OB  VB OB) INTS TO FILE  82
           WROTE         331776 WORDS OF (VA OB  VA OB) INTS TO FILE  83
           WROTE         331776 WORDS OF <VA OA||VA OA> INTS TO FILE  84
           WROTE         331776 WORDS OF <VB OB||VB OB> INTS TO FILE  85
           WROTE         331776 WORDS OF <VA OB||VA OB> INTS TO FILE  86
           WROTE         331776 WORDS OF <OA VB||OA VB> INTS TO FILE  87
 PASS=  2, WILL PROCESS [VV|VO] INTEGRALS.
           WROTE         331776 WORDS OF <VA VA||OA VA> INTS TO FILE  88
           WROTE         331776 WORDS OF <VB VB||OB VB> INTS TO FILE  89
           WROTE         331776 WORDS OF <VA VB||OA VB> INTS TO FILE  90
           WROTE         331776 WORDS OF <VA VB||VA OB> INTS TO FILE  91
 PASSES  3 TO  3 WILL PROCESS [VV|VV] INTEGRALS.
 PASS=  3, DOING MN-MX ALPHA VIRTUAL=  25-  48, MN-MX BETA VIRTUAL=  25-  48
           WROTE         331776 WORDS OF <VA VA||VA VA> INTS TO FILE  92
           WROTE         331776 WORDS OF <VB VB||VB VB> INTS TO FILE  92
           WROTE         331776 WORDS OF <VA VB||VA VB> INTS TO FILE  92
 ....... DONE WITH CC INTEGRAL PREPARATION .......
 STEP CPU TIME =     0.11 TOTAL CPU TIME =          0.9 (      0.0 MIN)
 TOTAL WALL CLOCK TIME=          0.7 SECONDS, CPU UTILIZATION IS   130.97%

        ------------------------
        OPEN-SHELL CCSDt PROGRAM
        ------------------------
 MEMORY NEEDED BY CCSDt   :            5 MWORDS

     WITH YOUR CHOICES OF INPUT PARAMETERS,

         CCSDt = CCSD

      BEGINNING CCSDt ITERATIONS

 ITER      E (CORR.)             dE
 ------------------------------------
    1  -0.5418102909   0.5418102909
    2  -0.6460284549   0.1042181641
    3  -0.6738038742   0.0277754192
    4  -0.6834802065   0.0096763324
    5  -0.6879067493   0.0044265427
    6  -0.6902165326   0.0023097833
    7  -0.6915479498   0.0013314172
    8  -0.6923472349   0.0007992851
    9  -0.6928450027   0.0004977677
  DIIS MICROCYCLE    1
   10  -0.6937266798   0.0008816772
   11  -0.6937493050   0.0000226252
   12  -0.6937540676   0.0000047625
   13  -0.6937567149   0.0000026473
   14  -0.6937582738   0.0000015589
  DIIS MICROCYCLE    2
   15  -0.6937604673   0.0000021935
   16  -0.6937610040   0.0000005367
   17  -0.6937611353   0.0000001313
   18  -0.6937612720   0.0000001367
   19  -0.6937613451   0.0000000731
  DIIS MICROCYCLE    3
   20  -0.6937615912   0.0000002461
   21  -0.6937615077  -0.0000000835
   22  -0.6937614887  -0.0000000191
   23  -0.6937614863  -0.0000000023
   24  -0.6937614855  -0.0000000008
  DIIS MICROCYCLE    4
   25  -0.6937614845  -0.0000000010
   26  -0.6937614859   0.0000000014
   27  -0.6937614859   0.0000000001
   28  -0.6937614858  -0.0000000001
   29  -0.6937614857  -0.0000000001
  DIIS MICROCYCLE    5
   30  -0.6937614856  -0.0000000002
 ------------------------------------

     THE CC ITERATIONS HAVE CONVERGED

                         SUMMARY OF CCSDt RESULTS

     REFERENCE ENERGY:     -378.6838798699
         CCSDt ENERGY:     -379.3776413555   CORR. E=  -0.6937614856


     WITH YOUR CHOICES OF INPUT PARAMETERS,

         CCSDt = CCSD

 THE LARGEST T1 AND T2 AMPLITUDES ARE
 T2=  -0.0425415030 FOR IA,JA -> AA, BA =  32  33  36  37
 T2=  -0.0605407232 FOR IA,JA -> AA, BA =  33  34  35  36
 T2=  -0.0425415030 FOR IB,JB -> AB, BB =  32  33  36  37
 T2=  -0.0605407232 FOR IB,JB -> AB, BB =  33  34  35  36
 T2=  -0.0297276230 FOR IA,JB -> AA, BB =  27  27  39  39
 T2=   0.0257562510 FOR IA,JB -> AA, BB =  27  31  38  39
 T2=   0.0279840875 FOR IA,JB -> AA, BB =  27  32  35  38
 T2=  -0.0373750652 FOR IA,JB -> AA, BB =  27  32  37  39
 T2=  -0.0265195276 FOR IA,JB -> AA, BB =  27  32  39  37
 T2=  -0.0465217264 FOR IA,JB -> AA, BB =  27  33  36  39
 T2=  -0.0320037411 FOR IA,JB -> AA, BB =  27  33  39  36
 T2=  -0.0437201080 FOR IA,JB -> AA, BB =  27  34  35  39
 T2=   0.0267590067 FOR IA,JB -> AA, BB =  27  34  37  38
 T2=  -0.0269340991 FOR IA,JB -> AA, BB =  27  34  39  35
 T2=   0.0257562510 FOR IA,JB -> AA, BB =  31  27  39  38
 T2=  -0.0332617845 FOR IA,JB -> AA, BB =  31  31  35  35
 T2=  -0.0314936160 FOR IA,JB -> AA, BB =  31  31  36  36
 T2=  -0.0505915688 FOR IA,JB -> AA, BB =  31  31  38  38
 T2=  -0.0272318387 FOR IA,JB -> AA, BB =  31  32  35  36
 T2=  -0.0261933237 FOR IA,JB -> AA, BB =  31  32  35  39
 T2=   0.0388364311 FOR IA,JB -> AA, BB =  31  32  37  38
 T2=   0.0547262079 FOR IA,JB -> AA, BB =  31  33  36  38
 T2=   0.0390167720 FOR IA,JB -> AA, BB =  31  33  38  36
 T2=   0.0646965582 FOR IA,JB -> AA, BB =  31  34  35  38
 T2=  -0.0263717568 FOR IA,JB -> AA, BB =  31  34  37  39
 T2=   0.0419540472 FOR IA,JB -> AA, BB =  31  34  38  35
 T2=  -0.0265195276 FOR IA,JB -> AA, BB =  32  27  37  39
 T2=   0.0279840875 FOR IA,JB -> AA, BB =  32  27  38  35
 T2=  -0.0373750652 FOR IA,JB -> AA, BB =  32  27  39  37
 T2=  -0.0272318387 FOR IA,JB -> AA, BB =  32  31  36  35
 T2=   0.0388364311 FOR IA,JB -> AA, BB =  32  31  38  37
 T2=  -0.0261933237 FOR IA,JB -> AA, BB =  32  31  39  35
 T2=  -0.0579314205 FOR IA,JB -> AA, BB =  32  32  35  35
 T2=  -0.0664044795 FOR IA,JB -> AA, BB =  32  32  37  37
 T2=  -0.0617520081 FOR IA,JB -> AA, BB =  32  33  36  37
 T2=  -0.0790368081 FOR IA,JB -> AA, BB =  32  34  35  37
 T2=  -0.0711350477 FOR IA,JB -> AA, BB =  32  34  37  35
 T2=  -0.0320037411 FOR IA,JB -> AA, BB =  33  27  36  39
 T2=  -0.0465217264 FOR IA,JB -> AA, BB =  33  27  39  36
 T2=   0.0390167720 FOR IA,JB -> AA, BB =  33  31  36  38
 T2=   0.0547262079 FOR IA,JB -> AA, BB =  33  31  38  36
 T2=  -0.0617520081 FOR IA,JB -> AA, BB =  33  32  37  36
 T2=  -0.1151869401 FOR IA,JB -> AA, BB =  33  33  36  36
 T2=  -0.0293179707 FOR IA,JB -> AA, BB =  33  33  38  38
 T2=  -0.0801544475 FOR IA,JB -> AA, BB =  33  34  35  36
 T2=   0.0253734415 FOR IA,JB -> AA, BB =  33  34  37  38
 T2=  -0.0269340991 FOR IA,JB -> AA, BB =  34  27  35  39
 T2=   0.0267590067 FOR IA,JB -> AA, BB =  34  27  38  37
 T2=  -0.0437201080 FOR IA,JB -> AA, BB =  34  27  39  35
 T2=   0.0419540472 FOR IA,JB -> AA, BB =  34  31  35  38
 T2=   0.0646965582 FOR IA,JB -> AA, BB =  34  31  38  35
 T2=  -0.0263717568 FOR IA,JB -> AA, BB =  34  31  39  37
 T2=  -0.0711350477 FOR IA,JB -> AA, BB =  34  32  35  37
 T2=  -0.0790368081 FOR IA,JB -> AA, BB =  34  32  37  35
 T2=  -0.0801544475 FOR IA,JB -> AA, BB =  34  33  36  35
 T2=   0.0253734415 FOR IA,JB -> AA, BB =  34  33  38  37
 T2=  -0.1339348627 FOR IA,JB -> AA, BB =  34  34  35  35
 T2=  -0.0561320251 FOR IA,JB -> AA, BB =  34  34  37  37
 T2=  -0.0314138052 FOR IA,JB -> AA, BB =  34  34  38  38
 ....... DONE WITH CCSDt AMPLITUDE ITERATIONS .......
 STEP CPU TIME =   102.26 TOTAL CPU TIME =        103.2 (      1.7 MIN)
 TOTAL WALL CLOCK TIME=         36.4 SECONDS, CPU UTILIZATION IS   283.46%

        -------------------------------------
        OPEN-SHELL EQUATION-OF-MOTION PROGRAM
        -------------------------------------
 MEMORY NEEDED BY ONEHBAR :      3985920 WORDS
 MEMORY NEEDED BY TWOHBAR :      4992192 WORDS
 ....... DONE WITH MATRIX ELEMENTS OF HBAR .......
 STEP CPU TIME =     5.54 TOTAL CPU TIME =        108.7 (      1.8 MIN)
 TOTAL WALL CLOCK TIME=         38.0 SECONDS, CPU UTILIZATION IS   285.85%

 MEMORY NEEDED BY OPENLEFT:      3669168 WORDS

      BEGINNING LAMBDA VECTOR ITERATIONS
 ITERATION:     1    CONV:     0.040011509
 ITERATION:     2    CONV:     0.008115854
 ITERATION:     3    CONV:     0.003301188
 ITERATION:     4    CONV:     0.001936902
 ITERATION:     5    CONV:     0.001283089
      DOING DIIS EXTRAPOLATION (DIM.OF THE SPACE=  5)
 ITERATION:     6    CONV:     0.000667324
 ITERATION:     7    CONV:     0.000359527
 ITERATION:     8    CONV:     0.000234927
 ITERATION:     9    CONV:     0.000157380
 ITERATION:    10    CONV:     0.000110118
      DOING DIIS EXTRAPOLATION (DIM.OF THE SPACE=  5)
 ITERATION:    11    CONV:     0.000018848
 ITERATION:    12    CONV:     0.000007591
 ITERATION:    13    CONV:     0.000004368
 ITERATION:    14    CONV:     0.000002690
 ITERATION:    15    CONV:     0.000001780
      DOING DIIS EXTRAPOLATION (DIM.OF THE SPACE=  5)
 ITERATION:    16    CONV:     0.000000694
 ITERATION:    17    CONV:     0.000000392
 ITERATION:    18    CONV:     0.000000254
 ITERATION:    19    CONV:     0.000000174
 ITERATION:    20    CONV:     0.000000120
      DOING DIIS EXTRAPOLATION (DIM.OF THE SPACE=  5)
 ITERATION:    21    CONV:     0.000000026

 LAMBDA VECTOR ITERATIONS HAVE CONVERGED,
 THE LARGEST LA1 AND LA2 AMPLITUDES ARE
 LA2=  -0.0406441883 FOR IA,JA -> AA, BA =  32  33  36  37
 LA2=  -0.0546199048 FOR IA,JA -> AA, BA =  33  34  35  36
 LA2=  -0.0406441883 FOR IB,JB -> AB, BB =  32  33  36  37
 LA2=  -0.0546199048 FOR IB,JB -> AB, BB =  33  34  35  36
 LA2=  -0.0320568272 FOR IA,JB -> AA, BB =  27  27  39  39
 LA2=   0.0275161229 FOR IA,JB -> AA, BB =  27  31  38  39
 LA2=  -0.0379931542 FOR IA,JB -> AA, BB =  27  32  37  39
 LA2=  -0.0259769756 FOR IA,JB -> AA, BB =  27  32  39  37
 LA2=  -0.0465251872 FOR IA,JB -> AA, BB =  27  33  36  39
 LA2=  -0.0308609580 FOR IA,JB -> AA, BB =  27  33  39  36
 LA2=  -0.0440790014 FOR IA,JB -> AA, BB =  27  34  35  39
 LA2=  -0.0264102650 FOR IA,JB -> AA, BB =  27  34  39  35
 LA2=   0.0275161229 FOR IA,JB -> AA, BB =  31  27  39  38
 LA2=  -0.0280369164 FOR IA,JB -> AA, BB =  31  31  35  35
 LA2=  -0.0280980055 FOR IA,JB -> AA, BB =  31  31  36  36
 LA2=  -0.0528785072 FOR IA,JB -> AA, BB =  31  31  38  38
 LA2=   0.0403844002 FOR IA,JB -> AA, BB =  31  32  37  38
 LA2=   0.0549523960 FOR IA,JB -> AA, BB =  31  33  36  38
 LA2=   0.0379236224 FOR IA,JB -> AA, BB =  31  33  38  36
 LA2=   0.0631998417 FOR IA,JB -> AA, BB =  31  34  35  38
 LA2=   0.0397770618 FOR IA,JB -> AA, BB =  31  34  38  35
 LA2=  -0.0259769756 FOR IA,JB -> AA, BB =  32  27  37  39
 LA2=  -0.0379931542 FOR IA,JB -> AA, BB =  32  27  39  37
 LA2=   0.0403844002 FOR IA,JB -> AA, BB =  32  31  38  37
 LA2=  -0.0501074219 FOR IA,JB -> AA, BB =  32  32  35  35
 LA2=  -0.0693233116 FOR IA,JB -> AA, BB =  32  32  37  37
 LA2=  -0.0617233296 FOR IA,JB -> AA, BB =  32  33  36  37
 LA2=  -0.0772510688 FOR IA,JB -> AA, BB =  32  34  35  37
 LA2=  -0.0659457170 FOR IA,JB -> AA, BB =  32  34  37  35
 LA2=  -0.0308609580 FOR IA,JB -> AA, BB =  33  27  36  39
 LA2=  -0.0465251872 FOR IA,JB -> AA, BB =  33  27  39  36
 LA2=   0.0379236224 FOR IA,JB -> AA, BB =  33  31  36  38
 LA2=   0.0549523960 FOR IA,JB -> AA, BB =  33  31  38  36
 LA2=  -0.0617233296 FOR IA,JB -> AA, BB =  33  32  37  36
 LA2=  -0.1141168702 FOR IA,JB -> AA, BB =  33  33  36  36
 LA2=  -0.0262740127 FOR IA,JB -> AA, BB =  33  33  38  38
 LA2=  -0.0792705700 FOR IA,JB -> AA, BB =  33  34  35  36
 LA2=  -0.0264102650 FOR IA,JB -> AA, BB =  34  27  35  39
 LA2=  -0.0440790014 FOR IA,JB -> AA, BB =  34  27  39  35
 LA2=   0.0397770618 FOR IA,JB -> AA, BB =  34  31  35  38
 LA2=   0.0631998417 FOR IA,JB -> AA, BB =  34  31  38  35
 LA2=  -0.0659457170 FOR IA,JB -> AA, BB =  34  32  35  37
 LA2=  -0.0772510688 FOR IA,JB -> AA, BB =  34  32  37  35
 LA2=  -0.0792705700 FOR IA,JB -> AA, BB =  34  33  36  35
 LA2=  -0.1310153353 FOR IA,JB -> AA, BB =  34  34  35  35
 LA2=  -0.0486610743 FOR IA,JB -> AA, BB =  34  34  37  37
 LA2=  -0.0266736658 FOR IA,JB -> AA, BB =  34  34  38  38
 ....... DONE WITH LAMBDA AMPLITUDE ITERATIONS .......
 STEP CPU TIME =    41.09 TOTAL CPU TIME =        149.8 (      2.5 MIN)
 TOTAL WALL CLOCK TIME=         50.5 SECONDS, CPU UTILIZATION IS   296.44%

        -----------------------------
        OPEN-SHELL CC(t;3) PROGRAM
        -----------------------------
         AVAILABLE MEMORY :    499999903 WORDS
 MEMORY NEEDED BY MM(2,3) :      7793280 WORDS, CODE=HIGH MEMORY VERSION (1)
 CHOOSING THE -HIGH MEMORY VERSION- FOR OPEN SHELL MM(2,3)

 MAIN RESULTS: CC(t;3) CALCULATIONS

 GROUND STATE CC(t;3),A CORRECTION -0.013654, TOTAL E=     -379.3912954343
 GROUND STATE CC(t;3),B CORRECTION -0.012586, TOTAL E=     -379.3902273012
 GROUND STATE CC(t;3),C CORRECTION -0.016320, TOTAL E=     -379.3939615471
 GROUND STATE CC(t;3),D CORRECTION -0.016273, TOTAL E=     -379.3939140198

 CC(t;3),D ENERGY IS IDENTICAL TO THE COMPLETE CC(t;3) ENERGY

               SUMMARY OF CC(t;3) CALCULATIONS
 CCSDt         E=     -379.3776413555   CORR. E=  -0.6937614856
 CC(t;3),A     E=     -379.3912954343   CORR. E=  -0.7074155644
 CC(t;3)       E=     -379.3939140198   CORR. E=  -0.7100341499

 THE MOST ACCURATE ENERGETICS IS PROVIDED BY CC(t;3) = CC(t;3),D

 ..... DONE WITH CC NON-ITERATIVE TRIPLES CORRECTIONS .....
 STEP CPU TIME =    95.17 TOTAL CPU TIME =        245.0 (      4.1 MIN)
 TOTAL WALL CLOCK TIME=         74.4 SECONDS, CPU UTILIZATION IS   329.18%
              7793376  WORDS OF DYNAMIC MEMORY USED
 EXECUTION OF GAMESS TERMINATED NORMALLY 17:46:58 15-DEC-2023    
 DDI: 263640 bytes (0.3 MB / 0 MWords) used by master data server.

 ----------------------------------------
 CPU timing information for all processes
 ========================================
 0: 234.709 + 10.288 = 244.998
 ----------------------------------------
 ddikick.x: exited gracefully.
----- accounting info -----
Files used on the master node coupled.cem.msu.edu were:
-rw-r--r-- 1 dengtia4 piecuch      929 Dec 15 17:45 /scratch/dengtia4/gamess/../sto3g.inp/sto3g.F05
-rw-r--r-- 1 dengtia4 piecuch  2340208 Dec 15 17:45 /scratch/dengtia4/gamess/../sto3g.inp/sto3g.F08
-rw-r--r-- 1 dengtia4 piecuch  1269528 Dec 15 17:45 /scratch/dengtia4/gamess/../sto3g.inp/sto3g.F09
-rw-r--r-- 1 dengtia4 piecuch  1897760 Dec 15 17:46 /scratch/dengtia4/gamess/../sto3g.inp/sto3g.F10
-rw-r--r-- 1 dengtia4 piecuch 26542080 Dec 15 17:46 /scratch/dengtia4/gamess/../sto3g.inp/sto3g.F70
-rw-r--r-- 1 dengtia4 piecuch 79626240 Dec 15 17:46 /scratch/dengtia4/gamess/../sto3g.inp/sto3g.F71
-rw-r--r-- 1 dengtia4 piecuch    46080 Dec 15 17:45 /scratch/dengtia4/gamess/../sto3g.inp/sto3g.F72
-rw-r--r-- 1 dengtia4 piecuch        0 Dec 15 12:04 /scratch/dengtia4/gamess/../sto3g.inp/sto3g.F73
-rw-r--r-- 1 dengtia4 piecuch  2654208 Dec 15 17:45 /scratch/dengtia4/gamess/../sto3g.inp/sto3g.F74
-rw-r--r-- 1 dengtia4 piecuch  2654208 Dec 15 17:45 /scratch/dengtia4/gamess/../sto3g.inp/sto3g.F75
-rw-r--r-- 1 dengtia4 piecuch  2654208 Dec 15 17:45 /scratch/dengtia4/gamess/../sto3g.inp/sto3g.F76
-rw-r--r-- 1 dengtia4 piecuch  2654208 Dec 15 17:45 /scratch/dengtia4/gamess/../sto3g.inp/sto3g.F77
-rw-r--r-- 1 dengtia4 piecuch  2654208 Dec 15 17:45 /scratch/dengtia4/gamess/../sto3g.inp/sto3g.F78
-rw-r--r-- 1 dengtia4 piecuch  2654208 Dec 15 17:45 /scratch/dengtia4/gamess/../sto3g.inp/sto3g.F79
-rw-r--r-- 1 dengtia4 piecuch  2654208 Dec 15 17:45 /scratch/dengtia4/gamess/../sto3g.inp/sto3g.F80
-rw-r--r-- 1 dengtia4 piecuch  2654208 Dec 15 17:45 /scratch/dengtia4/gamess/../sto3g.inp/sto3g.F81
-rw-r--r-- 1 dengtia4 piecuch  2654208 Dec 15 17:45 /scratch/dengtia4/gamess/../sto3g.inp/sto3g.F82
-rw-r--r-- 1 dengtia4 piecuch  2654208 Dec 15 17:45 /scratch/dengtia4/gamess/../sto3g.inp/sto3g.F83
-rw-r--r-- 1 dengtia4 piecuch  2654208 Dec 15 17:45 /scratch/dengtia4/gamess/../sto3g.inp/sto3g.F84
-rw-r--r-- 1 dengtia4 piecuch  2654208 Dec 15 17:45 /scratch/dengtia4/gamess/../sto3g.inp/sto3g.F85
-rw-r--r-- 1 dengtia4 piecuch  2654208 Dec 15 17:45 /scratch/dengtia4/gamess/../sto3g.inp/sto3g.F86
-rw-r--r-- 1 dengtia4 piecuch  2654208 Dec 15 17:45 /scratch/dengtia4/gamess/../sto3g.inp/sto3g.F87
-rw-r--r-- 1 dengtia4 piecuch  2654208 Dec 15 17:45 /scratch/dengtia4/gamess/../sto3g.inp/sto3g.F88
-rw-r--r-- 1 dengtia4 piecuch  2654208 Dec 15 17:45 /scratch/dengtia4/gamess/../sto3g.inp/sto3g.F89
-rw-r--r-- 1 dengtia4 piecuch  2654208 Dec 15 17:45 /scratch/dengtia4/gamess/../sto3g.inp/sto3g.F90
-rw-r--r-- 1 dengtia4 piecuch  2654208 Dec 15 17:45 /scratch/dengtia4/gamess/../sto3g.inp/sto3g.F91
-rw-r--r-- 1 dengtia4 piecuch  7962624 Dec 15 17:45 /scratch/dengtia4/gamess/../sto3g.inp/sto3g.F92
-rw-r--r-- 1 dengtia4 piecuch 45121536 Dec 15 17:46 /scratch/dengtia4/gamess/../sto3g.inp/sto3g.F93
-rw-r--r-- 1 dengtia4 piecuch 37158912 Dec 15 17:46 /scratch/dengtia4/gamess/../sto3g.inp/sto3g.F94
-rw-r--r-- 1 dengtia4 piecuch  7962624 Dec 15 17:46 /scratch/dengtia4/gamess/../sto3g.inp/sto3g.F95
-rw-r--r-- 1 dengtia4 piecuch  7971944 Dec 15 17:46 /scratch/dengtia4/gamess/../sto3g.inp/sto3g.MOE
Fri Dec 15 17:46:59 EST 2023
0.174u 0.091s 1:15.75 0.3%	0+0k 0+160io 0pf+0w
