1 : ../sto6g.inp
2 : 00
3 : 1
4 : 4
----- GAMESS execution script 'rungms' -----
This job is running on host coupled.cem.msu.edu
under operating system Linux at Fri Dec 15 17:45:43 EST 2023
Available scratch disk space (Kbyte units) at beginning of the job is
Filesystem      1K-blocks      Used  Available Use% Mounted on
/dev/sde2      2619147912 347030920 2139065192  14% /scratch
GAMESS temporary binary files will be written to /scratch/dengtia4/gamess/../sto6g.inp
GAMESS supplementary output files will be written to /home2/dengtia4/cmse890_workflow/modified_files/script
Copying input file /home2/dengtia4/cmse890_workflow/modified_files/sto6g.inp to your run's scratch directory...

 Distributed Data Interface kickoff program.
 Initiating 1 compute processes on 1 nodes to run the following command:
 /home2/dengtia4/gamess_May09-2023/gamess.00.x sto6g 

          *******************************************************
          *                                                     *
          *          GAMESS VERSION = 30 SEP 2022 (R2)          *
          *                                                     *
          *              doi.org/10.1063/5.0005188              *
          *                                                     *
          **************** 64 BIT LINUX VERSION *****************
 
           git commit: 908958b64642651f98c8f49c16e5c9f9b1fbb9b3
 

  GAMESS HAS BEEN MADE POSSIBLE WITH IMPORTANT CONTRIBUTIONS FROM
  THE FOLLOWING INDIVIDUALS (IN ALPHABETICAL ORDER):

     IVANA ADAMOVIC, CHRISTINE AIKENS, TOMOKO AKAMA,
     MELISA ALKAN, YURI ALEXEEV, YURIKO AOKI, POOJA ARORA,
     TOSHIO ASADA, ANDREY ASADCHEV, KIM K. BALDRIDGE,
     PRADIPTA BANDYOPADHYAY, TAYLOR A. BARNES, MARIA BARYSZ,
     ROB BELL, JONATHAN BENTZ, COLLEEN BERTONI,
     JERRY A. BOATZ, BRETT BODE, KURT BRORSEN, KURT R. BRORSEN,
     LAIMUTIS BYTAUTAS, CALEB CARLIN, LAURA CARRINGTON,
     GALINA CHABAN, BENOIT CHAMPAGNE, WEI CHEN, MAHITO CHIBA,
     DAN CHIPMAN, CHEOL HO CHOI, TANNER CULPITT,
     DIPAYAN DATTA, PAUL DAY, ALBERT DEFUSCO,
     NUWAN DESILVA, J. EMILIANO DEUSTUA,
     TIM DUDLEY, MICHEL DUPUIS, STEVEN T. ELBERT,
     DMITRI FEDOROV, KATHERINE FERRERAS, MICHAEL FILATOV,
     ALEX FINDLATER,GRAHAM FLETCHER, MARK FREITAG,
     CHRISTIAN FRIEDL, DAVID GARMER, 
     IGOR S. GERASIMOV, KURT GLAESEMANN,
     MARK S. GORDON, JEFFREY R. GOUR, FENG LONG GU,
     EMILIE B. GUIDEZ, ANASTASIA GUNINA, SHARON HAMMES-SCHIFFER,
     MASATAKE HARUTA, KIMIHIKO HIRAO, YASUHIRO IKABATA,
     TZVETELIN IORDANOV, STEPHAN IRLE, KAZUYA ISHIMURA,
     JOE IVANIC, FRANK JENSEN, JAN H. JENSEN, VISVALDAS KAIRYS,
     MUNEAKI KAMIYA, MICHIO KATOUDA, NAOAKI KAWAKAMI, DAN KEMP,
     BERNARD KIRTMAN, KAZUO KITAURA, MARIUSZ KLOBUKOWSKI,
     MASATO KOBAYASHI, KONSTANTIN KOMAROV, PRAKASHAN KORAMBATH,
     JACEK KORCHOWIEC, SHIRO KOSEKI, KAROL KOWALSKI,
     JIMMY KROMANN, STANISLAW A. KUCHARSKI, HENRY KURTZ,
     SAROM SOK LEANG, SEUNGHOON LEE, HUI LI, SHUHUA LI, WEI LI,
     JESSE J. LUTZ, ALEKSANDR O. LYKHIN,
     ILIAS MAGOULAS, MARCIN MAKOWSKI,
     JOANI MATO, NIKITA MATSUNAGA, BENEDETTA MENNUCCI,
     GRANT MERRILL, NORIYUKI MINEZAWA, VLADIMIR MIRONOV,
     EISAKU MIYOSHI, JOHN A. MONTGOMERY JR., HIROTOSHI MORI,
     JONATHAN MULLIN, MONIKA MUSIAL, SHIGERU NAGASE,
     TAKESHI NAGATA, HIROMI NAKAI, TAKAHITO NAKAJIMA,
     YUYA NAKAJIMA, HARUYUKI NAKANO, HIROYA NAKATA, SEAN NEDD,
     HEATHER NETZLOFF, KIET A. NGUYEN, YOSHIO NISHIMOTO,
     BOSILJKA NJEGIC, RYAN OLSON, MIKE PAK, ROBERTO PEVERATI,
     BUU PHAM, PIOTR PIECUCH, ANNA POMOGAEVA, DAVID POOLE,
     SPENCER PRUITT, OLIVIER QUINET, LUKE ROSKOP,
     KLAUS RUEDENBERG, ANDREW SAND, TOSAPORN SATTASATHUCHANA,
     NOZOMI SAWADA, MICHAEL W. SCHMIDT, PATRICK E. SCHNEIDER,
     JUNJI SEINO, PRACHI SHARMA, JUN SHEN, JIM SHOEMAKER,
     YINAN SHU, DEJUN SI, JONATHAN SKONE, LYUDMILA SLIPCHENKO,
     TONY SMITH, JIE SONG, MARK SPACKMAN, CASPER STEINMANN,
     WALT STEVENS, PEIFENG SU, SHUJUN SU, CHET SWALINA,
     CHINAMI TAKASHIMA, TETSUYA TAKETSUGU, ZHEN TAO,
     NANDUN THELLAMUREGE, SEIKEN TOKURA, JACOPO TOMASI,
     TSUGUKI TOUMA, TAKAO TSUNEDA, HIROAKI UMEDA,
     JORGE LUIS GALVEZ VALLEJO, YALI WANG, SIMON WEBB,
     AARON WEST, THERESA L. WINDUS, MARTA WLOCH,
     PENG XU, KIYOSHI YAGI, SUSUMU YANAGISAWA, YANG YANG,
     SOOHAENG YOO, TAKESHI YOSHIKAWA, FEDERICO ZAHARIEV,
     TOBY ZENG

  WHO ARE SUPPORTED BY THEIR INSTITUTION/UNIVERSITY/COMPANY/GROUP
  (IN ALPHABETICAL ORDER):

     EP ANALYTICS,
     FACULTES UNIVERSITAIRES NOTRE-DAME DE LA PAIX,
     INSTITUTE FOR MOLECULAR SCIENCE, IOWA STATE UNIVERSITY,
     JACKSON STATE UNIVERSITY, JOHANNES KEPLER UNIVERSITY LINZ,
     KYUNGPOOK NATIONAL UNIVERSITY
     KYUSHU UNIVERSITY, MICHIGAN STATE UNIVERSITY,
     MIE UNIVERSITY, THE MOLECULAR SCIENCES SOFTWARE INSTITUTE,
     MOSCOW STATE UNIVERSITY,
     N. COPERNICUS UNIVERSITY, NAGOYA UNIVERSITY,
     NANJING UNIVERSITY, NAT. INST. OF ADVANCED INDUSTRIAL
     SCIENCE AND TECHNOLOGY, NATIONAL INST. OF STANDARDS AND
     TECHNOLOGY, NESMEYANOV INSTITUTE OF ORGANOELEMENT COMPOUNDS
     OF RUSSIAN ACADEMY OF SCIENCES, OSAKA PREFECTURE UNIVERSITY,
     PENNSYLVANIA STATE UNIVERSITY, TOKYO INSTITUTE OF TECHNOLOGY,
     UNIVERSITY OF AARHUS, UNIVERSITY OF ALBERTA,
     UNIVERSITY OF CALIFORNIA AT SANTA BARBARA,
     UNIVERSITY OF COPENHAGEN, UNIVERSITY OF IOWA,
     UNIVERSITY OF MEMPHIS, UNIVERSITY OF MINNESOTA,
     UNIVERSITY OF NEBRASKA, UNIVERSITY OF NEW ENGLAND,
     UNIVERSITY OF NOTRE DAME, UNIVERSITY OF PISA,
     UNIVERSITY OF SILESIA, UNIVERSITY OF TOKYO,
     UNIVERSITY OF ZURICH, WASEDA UNIVERSITY,
     YALE UNIVERSITY

  GAMESS SOFTWARE MANAGEMENT TEAM FOR THIS RELEASE:
     MARK S. GORDON (TEAM LEAD),
     BRETT BODE (SENIOR ADVISOR),
     GIUSEPPE BARCA,
     COLLEEN BERTONI,
     KRISTOPHER KEIPERT (ADVISOR),
     SAROM S. LEANG (DEVELOPMENT LEAD),
     BUU PHAM,
     JACKSON HAYES (WEBSITE ADMINISTRATOR),
     PENG XU

 EXECUTION OF GAMESS BEGUN 17:45:43 15-DEC-2023    

            ECHO OF THE FIRST FEW INPUT CARDS -
 INPUT CARD> $CONTRL RUNTYP=ENERGY CCTYP=CCT3 COORD=PRINAXIS                                
 INPUT CARD>  MULT=1 ICHARG=0 UNITS=ANGS ISPHER=1 $END                                      
 INPUT CARD> $SYSTEM TIMLIM=999999999999999 MWORDS=500 $END                                 
 INPUT CARD> $BASIS GBASIS=STO NGAUSS=6 $END                                                
 INPUT CARD> $SCF NCONV=9  $END                                                             
 INPUT CARD> $CCINP MAXCC=800 $END                                                          
 INPUT CARD> $DATA                                                                          
 INPUT CARD>Title                                                                           
 INPUT CARD>DNH 2                                                                           
 INPUT CARD>                                                                                
 INPUT CARD>C  6.0  -2.433634  0.708354  0.000000                                           
 INPUT CARD>C  6.0  -2.433634 -0.708354  0.000000                                           
 INPUT CARD>C  6.0   2.433634  0.708354  0.000000                                           
 INPUT CARD>C  6.0   2.433634 -0.708354  0.000000                                           
 INPUT CARD>H  1.0  -3.378135 -1.245817  0.000000                                           
 INPUT CARD>H  1.0  -3.378135  1.245817  0.000000                                           
 INPUT CARD>H  1.0   3.378135  1.245817  0.000000                                           
 INPUT CARD>H  1.0   3.378135 -1.245817  0.000000                                           
 INPUT CARD>C  6.0  -1.244704  1.402507  0.000000                                           
 INPUT CARD>C  6.0  -1.244704 -1.402507  0.000000                                           
 INPUT CARD>C  6.0   1.244704  1.402507  0.000000                                           
 INPUT CARD>C  6.0   1.244704 -1.402507  0.000000                                           
 INPUT CARD>C  6.0  -0.000000  0.717168  0.000000                                           
 INPUT CARD>C  6.0  -0.000000 -0.717168  0.000000                                           
 INPUT CARD>H  1.0  -1.242591  2.490280  0.000000                                           
 INPUT CARD>H  1.0  -1.242591 -2.490280  0.000000                                           
 INPUT CARD>H  1.0   1.242591  2.490280  0.000000                                           
 INPUT CARD>H  1.0   1.242591 -2.490280  0.000000                                           
 INPUT CARD> $END                                                                           
 INPUT CARD>                                                                                
    500000000 WORDS OF MEMORY AVAILABLE

     BASIS OPTIONS
     -------------
     GBASIS=STO          IGAUSS=       6      POLAR=NONE    
     NDFUNC=       0     NFFUNC=       0     DIFFSP=       F
     NPFUNC=       0      DIFFS=       F     BASNAM=        


     RUN TITLE
     ---------
 Title                                                                           

 THE POINT GROUP OF THE MOLECULE IS DNH     
 THE ORDER OF THE PRINCIPAL AXIS IS     2

 THE MOMENTS OF INERTIA ARE (AMU-ANGSTROM**2)
 IXX=   162.103   IYY=   410.878   IZZ=   572.981

 ATOM      ATOMIC                      COORDINATES (BOHR)
           CHARGE         X                   Y                   Z
 C           6.0     4.5989014144       -1.3385949623        0.0000000000
 C           6.0    -4.5989014144       -1.3385949623        0.0000000000
 C           6.0     4.5989014144        1.3385949623        0.0000000000
 C           6.0    -4.5989014144        1.3385949623        0.0000000000
 H           1.0     6.3837494995        2.3542527608        0.0000000000
 H           1.0    -6.3837494995        2.3542527608        0.0000000000
 H           1.0     6.3837494995       -2.3542527608        0.0000000000
 H           1.0    -6.3837494995       -2.3542527608        0.0000000000
 C           6.0     2.3521494958       -2.6503539259        0.0000000000
 C           6.0    -2.3521494958       -2.6503539259        0.0000000000
 C           6.0     2.3521494958        2.6503539259        0.0000000000
 C           6.0    -2.3521494958        2.6503539259        0.0000000000
 C           6.0    -0.0000000000       -1.3552510072        0.0000000000
 C           6.0     0.0000000000        1.3552510072        0.0000000000
 H           1.0     2.3481565048       -4.7059468327        0.0000000000
 H           1.0    -2.3481565048       -4.7059468327        0.0000000000
 H           1.0     2.3481565048        4.7059468327        0.0000000000
 H           1.0    -2.3481565048        4.7059468327        0.0000000000

          INTERNUCLEAR DISTANCES (ANGS.)
          ------------------------------

                1 C          2 C          3 C          4 C          5 H     

   1 C       0.0000000    4.8672680    1.4167080 *  5.0692563    2.1704530 *
   2 C       4.8672680    0.0000000    5.0692563    1.4167080 *  6.1315123  
   3 C       1.4167080 *  5.0692563    0.0000000    4.8672680    1.0867146 *
   4 C       5.0692563    1.4167080 *  4.8672680    0.0000000    5.8365679  
   5 H       2.1704530 *  6.1315123    1.0867146 *  5.8365679    0.0000000  
   6 H       6.1315123    2.1704530 *  5.8365679    1.0867146 *  6.7562700  
   7 H       1.0867146 *  5.8365679    2.1704530 *  6.1315123    2.4916340 *
   8 H       5.8365679    1.0867146 *  6.1315123    2.1704530 *  7.2010711  
   9 C       1.3767363 *  3.7432631    2.4226615 *  4.2409792    3.4007570  
  10 C       3.7432631    1.3767363 *  4.2409792    2.4226615 *  5.3276881  
  11 C       2.4226615 *  4.2409792    1.3767363 *  3.7432631    2.1391773 *
  12 C       4.2409792    2.4226615 *  3.7432631    1.3767363 *  4.6254937  
  13 C       2.4336500 *  2.4336500 *  2.8204055 *  2.8204055 *  3.9070585  
  14 C       2.8204055 *  2.8204055 *  2.4336500 *  2.4336500 *  3.4192493  
  15 H       2.1433254 *  4.0853262    3.4131866    4.8729754    4.3033672  
  16 H       4.0853262    2.1433254 *  4.8729754    3.4131866    5.9421822  
  17 H       3.4131866    4.8729754    2.1433254 *  4.0853262    2.4716869 *
  18 H       4.8729754    3.4131866    4.0853262    2.1433254 *  4.7853732  

                6 H          7 H          8 H          9 C         10 C     

   1 C       6.1315123    1.0867146 *  5.8365679    1.3767363 *  3.7432631  
   2 C       2.1704530 *  5.8365679    1.0867146 *  3.7432631    1.3767363 *
   3 C       5.8365679    2.1704530 *  6.1315123    2.4226615 *  4.2409792  
   4 C       1.0867146 *  6.1315123    2.1704530 *  4.2409792    2.4226615 *
   5 H       6.7562700    2.4916340 *  7.2010711    3.4007570    5.3276881  
   6 H       0.0000000    7.2010711    2.4916340 *  5.3276881    3.4007570  
   7 H       7.2010711    0.0000000    6.7562700    2.1391773 *  4.6254937  
   8 H       2.4916340 *  6.7562700    0.0000000    4.6254937    2.1391773 *
   9 C       5.3276881    2.1391773 *  4.6254937    0.0000000    2.4894080 *
  10 C       3.4007570    4.6254937    2.1391773 *  2.4894080 *  0.0000000  
  11 C       4.6254937    3.4007570    5.3276881    2.8050140 *  3.7503674  
  12 C       2.1391773 *  5.3276881    3.4007570    3.7503674    2.8050140 *
  13 C       3.9070585    3.4192493    3.4192493    1.4209073 *  1.4209073 *
  14 C       3.4192493    3.9070585    3.9070585    2.4581111 *  2.4581111 *
  15 H       5.9421822    2.4716869 *  4.7853732    1.0877751 *  2.7147535 *
  16 H       4.3033672    4.7853732    2.4716869 *  2.7147535 *  1.0877751 *
  17 H       4.7853732    4.3033672    5.9421822    3.8927876    4.6195700  
  18 H       2.4716869 *  5.9421822    4.3033672    4.6195700    3.8927876  

               11 C         12 C         13 C         14 C         15 H     

   1 C       2.4226615 *  4.2409792    2.4336500 *  2.8204055 *  2.1433254 *
   2 C       4.2409792    2.4226615 *  2.4336500 *  2.8204055 *  4.0853262  
   3 C       1.3767363 *  3.7432631    2.8204055 *  2.4336500 *  3.4131866  
   4 C       3.7432631    1.3767363 *  2.8204055 *  2.4336500 *  4.8729754  
   5 H       2.1391773 *  4.6254937    3.9070585    3.4192493    4.3033672  
   6 H       4.6254937    2.1391773 *  3.9070585    3.4192493    5.9421822  
   7 H       3.4007570    5.3276881    3.4192493    3.9070585    2.4716869 *
   8 H       5.3276881    3.4007570    3.4192493    3.9070585    4.7853732  
   9 C       2.8050140 *  3.7503674    1.4209073 *  2.4581111 *  1.0877751 *
  10 C       3.7503674    2.8050140 *  1.4209073 *  2.4581111 *  2.7147535 *
  11 C       0.0000000    2.4894080 *  2.4581111 *  1.4209073 *  3.8927876  
  12 C       2.4894080 *  0.0000000    2.4581111 *  1.4209073 *  4.6195700  
  13 C       2.4581111 *  2.4581111 *  0.0000000    1.4343360 *  2.1651694 *
  14 C       1.4209073 *  1.4209073 *  1.4343360 *  0.0000000    3.4397318  
  15 H       3.8927876    4.6195700    2.1651694 *  3.4397318    0.0000000  
  16 H       4.6195700    3.8927876    2.1651694 *  3.4397318    2.4851820 *
  17 H       1.0877751 *  2.7147535 *  3.4397318    2.1651694 *  4.9805600  
  18 H       2.7147535 *  1.0877751 *  3.4397318    2.1651694 *  5.5661573  

               16 H         17 H         18 H     

   1 C       4.0853262    3.4131866    4.8729754  
   2 C       2.1433254 *  4.8729754    3.4131866  
   3 C       4.8729754    2.1433254 *  4.0853262  
   4 C       3.4131866    4.0853262    2.1433254 *
   5 H       5.9421822    2.4716869 *  4.7853732  
   6 H       4.3033672    4.7853732    2.4716869 *
   7 H       4.7853732    4.3033672    5.9421822  
   8 H       2.4716869 *  5.9421822    4.3033672  
   9 C       2.7147535 *  3.8927876    4.6195700  
  10 C       1.0877751 *  4.6195700    3.8927876  
  11 C       4.6195700    1.0877751 *  2.7147535 *
  12 C       3.8927876    2.7147535 *  1.0877751 *
  13 C       2.1651694 *  3.4397318    3.4397318  
  14 C       3.4397318    2.1651694 *  2.1651694 *
  15 H       2.4851820 *  4.9805600    5.5661573  
  16 H       0.0000000    5.5661573    4.9805600  
  17 H       5.5661573    0.0000000    2.4851820 *
  18 H       4.9805600    2.4851820 *  0.0000000  

  * ... LESS THAN  3.000


     ATOMIC BASIS SET
     ----------------
 THE CONTRACTED PRIMITIVE FUNCTIONS HAVE BEEN UNNORMALIZED
 THE CONTRACTED BASIS FUNCTIONS ARE NOW NORMALIZED TO UNITY

  SHELL TYPE  PRIMITIVE        EXPONENT          CONTRACTION COEFFICIENT(S)

 C         

      7   S       1           742.7370491    0.009163596281
      7   S       2           136.1800249    0.049361492943
      7   S       3            38.0982635    0.168538304910
      7   S       4            13.0877818    0.370562799722
      7   S       5             5.0823686    0.416491529825
      7   S       6             2.0932001    0.130334084108

      8   L       7            30.4972395   -0.013252788090    0.003759696623
      8   L       8             6.0361996   -0.046991710139    0.037679369843
      8   L       9             1.8760463   -0.033785371509    0.173896743514
      8   L      10             0.7217826    0.250241786092    0.418036434734
      8   L      11             0.3134707    0.595117252581    0.425859547735
      8   L      12             0.1436866    0.240706176292    0.101708295508

 H         

     12   S      13            35.5232212    0.009163596281
     12   S      14             6.5131437    0.049361492943
     12   S      15             1.8221429    0.168538304910
     12   S      16             0.6259553    0.370562799722
     12   S      17             0.2430767    0.416491529825
     12   S      18             0.1001124    0.130334084108

 C         

     19   S      19           742.7370491    0.009163596281
     19   S      20           136.1800249    0.049361492943
     19   S      21            38.0982635    0.168538304910
     19   S      22            13.0877818    0.370562799722
     19   S      23             5.0823686    0.416491529825
     19   S      24             2.0932001    0.130334084108

     20   L      25            30.4972395   -0.013252788090    0.003759696623
     20   L      26             6.0361996   -0.046991710139    0.037679369843
     20   L      27             1.8760463   -0.033785371509    0.173896743514
     20   L      28             0.7217826    0.250241786092    0.418036434734
     20   L      29             0.3134707    0.595117252581    0.425859547735
     20   L      30             0.1436866    0.240706176292    0.101708295508

 C         

     23   S      31           742.7370491    0.009163596281
     23   S      32           136.1800249    0.049361492943
     23   S      33            38.0982635    0.168538304910
     23   S      34            13.0877818    0.370562799722
     23   S      35             5.0823686    0.416491529825
     23   S      36             2.0932001    0.130334084108

     24   L      37            30.4972395   -0.013252788090    0.003759696623
     24   L      38             6.0361996   -0.046991710139    0.037679369843
     24   L      39             1.8760463   -0.033785371509    0.173896743514
     24   L      40             0.7217826    0.250241786092    0.418036434734
     24   L      41             0.3134707    0.595117252581    0.425859547735
     24   L      42             0.1436866    0.240706176292    0.101708295508

 H         

     28   S      43            35.5232212    0.009163596281
     28   S      44             6.5131437    0.049361492943
     28   S      45             1.8221429    0.168538304910
     28   S      46             0.6259553    0.370562799722
     28   S      47             0.2430767    0.416491529825
     28   S      48             0.1001124    0.130334084108

 TOTAL NUMBER OF BASIS SET SHELLS             =   28
 NUMBER OF CARTESIAN GAUSSIAN BASIS FUNCTIONS =   58
 NOTE: THIS RUN WILL RESTRICT THE MO VARIATION SPACE TO SPHERICAL HARMONICS.
 THE NUMBER OF ORBITALS KEPT IN THE VARIATIONAL SPACE WILL BE PRINTED LATER.
 NUMBER OF ELECTRONS                          =   68
 CHARGE OF MOLECULE                           =    0
 SPIN MULTIPLICITY                            =    1
 NUMBER OF OCCUPIED ORBITALS (ALPHA)          =   34
 NUMBER OF OCCUPIED ORBITALS (BETA )          =   34
 TOTAL NUMBER OF ATOMS                        =   18
 THE NUCLEAR REPULSION ENERGY IS      457.1932839439

     $CONTRL OPTIONS
     ---------------
 SCFTYP=ROHF         RUNTYP=ENERGY       EXETYP=RUN     
 MPLEVL=       0     CITYP =NONE         CCTYP =CCT3         VBTYP =NONE    
 DFTTYP=NONE         TDDFT =NONE    
 MULT  =       1     ICHARG=       0     NZVAR =       0     COORD =PRINAXIS
 PP    =NONE         RELWFN=NONE         LOCAL =NONE         NUMGRD=       F
 ISPHER=       1     NOSYM =       0     MAXIT =      30     UNITS =ANGS    
 PLTORB=       F     MOLPLT=       F     AIMPAC=       F     FRIEND=        
 NPRINT=       7     IREST =       0     GEOM  =INPUT   
 NORMF =       0     NORMP =       0     ITOL  =      20     ICUT  =       9
 INTTYP=BEST         GRDTYP=BEST         QMTTOL= 1.0E-06

     $SYSTEM OPTIONS
     ---------------
  REPLICATED MEMORY=   500000000 WORDS (ON EVERY NODE).
 DISTRIBUTED MEMDDI=           0 MILLION WORDS IN AGGREGATE,
 MEMDDI DISTRIBUTED OVER   1 PROCESSORS IS           0 WORDS/PROCESSOR.
 TOTAL MEMORY REQUESTED ON EACH PROCESSOR=   500000000 WORDS.
 TIMLIM=*************** MINUTES, OR ********* DAYS.
 PARALL= F  BALTYP=  DLB     KDIAG=    0  COREFL= F
 MXSEQ2=     300 MXSEQ3=     150  mem10=         0  mem22=         0

          ----------------
          PROPERTIES INPUT
          ----------------

     MOMENTS            FIELD           POTENTIAL          DENSITY
 IEMOM =       1   IEFLD =       0   IEPOT =       0   IEDEN =       0
 WHERE =COMASS     WHERE =NUCLEI     WHERE =NUCLEI     WHERE =NUCLEI  
 OUTPUT=BOTH       OUTPUT=BOTH       OUTPUT=BOTH       OUTPUT=BOTH    
 IEMINT=       0   IEFINT=       0                     IEDINT=       0
                                                       MORB  =       0
          EXTRAPOLATION IN EFFECT
          SOSCF IN EFFECT
 ORBITAL PRINTING OPTION: NPREO=     1    58     2     1

     -------------------------------
     INTEGRAL TRANSFORMATION OPTIONS
     -------------------------------
     NWORD  =            0
     CUTTRF = 1.0E-09     MPTRAN =       0
     DIRTRF =       F     AOINTS =DUP     

          ----------------------
          INTEGRAL INPUT OPTIONS
          ----------------------
 NOPK  =       1 NORDER=       0 SCHWRZ=       T

     -------------------------------------------
     EQUATION OF MOTION INPUT FOR EXCITED STATES
     -------------------------------------------
     OPTIONS FOR STATE SELECTION:
     GROUP =D2H       NSTATE= 1, 0, 0, 0, 0, 0, 0, 0    IROOT = 1, 0
     OPTIONS FOR THE EOM-CCSD:
     MEOM  =       0  MAXEOM=      50  MICEOM=      80  CVGEOM= 1.0E-04
     OPTIONS FOR EOM-CCSD WITH ROHF REFERENCES:
     JREST =       0  MULT =      -1
     OPTIONS FOR PROPERTIES:
     CCPRP =       F  CCPRPE =       F
     OPTIONS FOR INITIAL GUESSES:
     MINIT =       2  MACT =       0  NOACT =       0  NUACT =       0
     NO DOUBLE EXCITATIONS WILL BE INCLUDED IN THE INITIAL GUESS

     ------------------------------------------
     THE POINT GROUP IS DNH, NAXIS= 2, ORDER= 8
     ------------------------------------------

 -- VARIATIONAL SPACE WILL BE RESTRICTED TO PURE SPHERICAL HARMONICS ONLY --
 AFTER EXCLUDING CONTAMINANT COMBINATIONS FROM THE CARTESIAN GAUSSIAN BASIS
 SET, THE NUMBER OF SPHERICAL HARMONICS KEPT IN THE VARIATION SPACE IS   58

     DIMENSIONS OF THE SYMMETRY SUBSPACES ARE
 AG  =   13     AU  =    2     B3U =   11     B3G =    3     B1G =   11
 B1U =    3     B2U =   13     B2G =    2

 ..... DONE SETTING UP THE RUN .....
 STEP CPU TIME =     0.02 TOTAL CPU TIME =          0.0 (      0.0 MIN)
 TOTAL WALL CLOCK TIME=          0.0 SECONDS, CPU UTILIZATION IS    89.92%

          ********************
          1 ELECTRON INTEGRALS
          ********************
 ...... END OF ONE-ELECTRON INTEGRALS ......
 STEP CPU TIME =     0.03 TOTAL CPU TIME =          0.1 (      0.0 MIN)
 TOTAL WALL CLOCK TIME=          0.1 SECONDS, CPU UTILIZATION IS    95.81%

          -------------
          GUESS OPTIONS
          -------------
          GUESS =HUCKEL            NORB  =       0          NORDER=       0
          MIX   =       F          PRTMO =       F          PUNMO =       F
          TOLZ  = 1.0E-08          TOLE  = 1.0E-05
          SYMDEN=       F          PURIFY=       F

 INITIAL GUESS ORBITALS GENERATED BY HUCKEL   ROUTINE.
 HUCKEL GUESS REQUIRES     49906 WORDS.

 SYMMETRIES FOR INITIAL GUESS ORBITALS FOLLOW.  ALPHA SET(S).
    34 ORBITALS ARE OCCUPIED (   10 CORE ORBITALS).
    11=AG      12=B3U     13=B2U     14=AG      15=B1G     16=AG      17=B3U 
    18=B2U     19=B3U     20=B1G     21=B1U     22=AG      23=B2U     24=B2G 
    25=AG      26=B1G     27=B2U     28=B3G     29=B3U     30=B3U     31=B1U 
    32=AU      33=AG      34=B1G     35=B2G     36=B3G     37=B1U     38=AU  
    39=B3G     40=AG      41=AG      42=AG      43=AG      44=B3U 

 SYMMETRIES FOR INITIAL GUESS ORBITALS FOLLOW.   BETA SET(S).
    34 ORBITALS ARE OCCUPIED (   10 CORE ORBITALS).
    11=AG      12=B3U     13=B2U     14=AG      15=B1G     16=AG      17=B3U 
    18=B2U     19=B3U     20=B1G     21=B1U     22=AG      23=B2U     24=B2G 
    25=AG      26=B1G     27=B2U     28=B3G     29=B3U     30=B3U     31=B1U 
    32=AU      33=AG      34=B1G     35=B2G     36=B3G     37=B1U     38=AU  
    39=B3G     40=AG      41=AG      42=AG      43=AG      44=B3U 
 ...... END OF INITIAL ORBITAL SELECTION ......
 STEP CPU TIME =     0.03 TOTAL CPU TIME =          0.1 (      0.0 MIN)
 TOTAL WALL CLOCK TIME=          0.1 SECONDS, CPU UTILIZATION IS    90.97%

                    ----------------------
                    AO INTEGRAL TECHNOLOGY
                    ----------------------
     S,P,L SHELL ROTATED AXIS INTEGRALS, REPROGRAMMED BY
        KAZUYA ISHIMURA (IMS) AND JOSE SIERRA (SYNSTAR).
     S,P,D,L SHELL ROTATED AXIS INTEGRALS PROGRAMMED BY
        KAZUYA ISHIMURA (INSTITUTE FOR MOLECULAR SCIENCE).
     S,P,D,F,G SHELL TO TOTAL QUARTET ANGULAR MOMENTUM SUM 5,
        ERIC PROGRAM BY GRAHAM FLETCHER (ELORET AND NASA ADVANCED
        SUPERCOMPUTING DIVISION, AMES RESEARCH CENTER).
     S,P,D,F,G,L SHELL GENERAL RYS QUADRATURE PROGRAMMED BY
        MICHEL DUPUIS (PACIFIC NORTHWEST NATIONAL LABORATORY).

          --------------------
          2 ELECTRON INTEGRALS
          --------------------

 THE -PK- OPTION IS OFF, THE INTEGRALS ARE NOT IN SUPERMATRIX FORM.
 STORING   15000 INTEGRALS/RECORD ON DISK, USING 12 BYTES/INTEGRAL.
 TWO ELECTRON INTEGRAL EVALUATION REQUIRES   89762 WORDS OF MEMORY.
 SCHWARZ INEQUALITY OVERHEAD:      1697 INTEGRALS, T=        0.02
 II,JST,KST,LST =  1  1  1  1 NREC =         1 INTLOC =    1
 II,JST,KST,LST =  2  1  1  1 NREC =         1 INTLOC =    1
 II,JST,KST,LST =  3  1  1  1 NREC =         1 INTLOC =    1
 II,JST,KST,LST =  4  1  1  1 NREC =         1 INTLOC =    1
 II,JST,KST,LST =  5  1  1  1 NREC =         1 INTLOC =    1
 II,JST,KST,LST =  6  1  1  1 NREC =         1 INTLOC =    1
 II,JST,KST,LST =  7  1  1  1 NREC =         1 INTLOC =    1
 II,JST,KST,LST =  8  1  1  1 NREC =         1 INTLOC =    7
 II,JST,KST,LST =  9  1  1  1 NREC =         1 INTLOC = 2479
 II,JST,KST,LST = 10  1  1  1 NREC =         1 INTLOC = 2479
 II,JST,KST,LST = 11  1  1  1 NREC =         1 INTLOC = 2479
 II,JST,KST,LST = 12  1  1  1 NREC =         1 INTLOC = 2479
 II,JST,KST,LST = 13  1  1  1 NREC =         1 INTLOC = 5358
 II,JST,KST,LST = 14  1  1  1 NREC =         1 INTLOC = 5358
 II,JST,KST,LST = 15  1  1  1 NREC =         1 INTLOC = 5358
 II,JST,KST,LST = 16  1  1  1 NREC =         1 INTLOC = 5358
 II,JST,KST,LST = 17  1  1  1 NREC =         1 INTLOC = 5358
 II,JST,KST,LST = 18  1  1  1 NREC =         1 INTLOC = 5358
 II,JST,KST,LST = 19  1  1  1 NREC =         1 INTLOC = 5358
 II,JST,KST,LST = 20  1  1  1 NREC =         1 INTLOC = 9111
 II,JST,KST,LST = 21  1  1  1 NREC =         5 INTLOC = 3005
 II,JST,KST,LST = 22  1  1  1 NREC =         5 INTLOC = 3005
 II,JST,KST,LST = 23  1  1  1 NREC =         5 INTLOC = 3005
 II,JST,KST,LST = 24  1  1  1 NREC =         5 INTLOC =14605
 II,JST,KST,LST = 25  1  1  1 NREC =        10 INTLOC =10961
 II,JST,KST,LST = 26  1  1  1 NREC =        10 INTLOC =10961
 II,JST,KST,LST = 27  1  1  1 NREC =        10 INTLOC =10961
 II,JST,KST,LST = 28  1  1  1 NREC =        10 INTLOC =10961
 SCHWARZ INEQUALITY TEST SKIPPED        4222 INTEGRAL BLOCKS.
 TOTAL NUMBER OF NONZERO TWO-ELECTRON INTEGRALS =              200243
         14 INTEGRAL RECORDS WERE STORED ON DISK FILE  8.
  ...... END OF TWO-ELECTRON INTEGRALS .....
 STEP CPU TIME =     0.63 TOTAL CPU TIME =          0.7 (      0.0 MIN)
 TOTAL WALL CLOCK TIME=          0.7 SECONDS, CPU UTILIZATION IS    98.73%

          ---------------------------
                 ROHF SCF CALCULATION
          ---------------------------

     NUCLEAR ENERGY =       457.1932839439
     MAXIT = 30     NPUNCH=  2     MULT=  1
     EXTRAP=T  DAMP=F  SHIFT=F  RSTRCT=F  DIIS=F  SOSCF=T
     DENSITY MATRIX CONV=  1.00E-09
     ROHF CANONICALIZATION PARAMETERS
             C-C     O-O     V-V
     ALPHA -0.5000  0.5000  1.5000
     BETA   1.5000  0.5000 -0.5000
     SOSCF WILL OPTIMIZE     816 ORBITAL ROTATION ANGLES. SOGTOL= 2.500E-01
     MEMORY REQUIRED FOR UHF/ROHF ITERS=     66042 WORDS.

 ITER EX      TOTAL ENERGY        E CHANGE  DENSITY CHANGE    ORB. GRAD 
   1  0     -382.1275164682  -382.1275164682   0.170953206   0.000000000
          ---------------START SECOND ORDER SCF---------------
   2  1     -382.4022657421    -0.2747492739   0.038233670   0.016074251
   3  2     -382.4080724891    -0.0058067470   0.020450345   0.005854869
   4  3     -382.4085799552    -0.0005074661   0.002563850   0.002554037
   5  4     -382.4086328477    -0.0000528925   0.001491353   0.000577045
   6  5     -382.4086382796    -0.0000054319   0.000905205   0.000288161
   7  6     -382.4086392800    -0.0000010004   0.000062595   0.000040160
   8  7     -382.4086392982    -0.0000000181   0.000006856   0.000004162
   9  8     -382.4086392985    -0.0000000003   0.000002930   0.000000837
  10  9     -382.4086392985    -0.0000000000   0.000000748   0.000000165
  11 10     -382.4086392985    -0.0000000000   0.000000204   0.000000076
  12 11     -382.4086392985    -0.0000000000   0.000000018   0.000000011
  13 12     -382.4086392985     0.0000000000   0.000000004   0.000000002
  14 13     -382.4086392985    -0.0000000000   0.000000002   0.000000001
  15 14     -382.4086392985     0.0000000000   0.000000001   0.000000000

 ROHF HAS CONVERGED, NOW COMPUTING EXACT ALPHA,BETA FOCK MATRICES
 FOR USE DURING THE COUPLED CLUSTER CALCULATION THAT FOLLOWS.

          -----------------
          DENSITY CONVERGED
          -----------------
     TIME TO FORM FOCK OPERATORS=       0.1 SECONDS (       0.0 SEC/ITER)
     TIME TO SOLVE SCF EQUATIONS=       0.0 SECONDS (       0.0 SEC/ITER)

 FINAL ROHF ENERGY IS     -382.4086392985 AFTER  15 ITERATIONS

          --------------------
          SPIN SZ   =    0.000
          S-SQUARED =    0.000
          --------------------

          ------------
          EIGENVECTORS
          ------------

                      1          2          3          4          5
                  -11.1886   -11.1881   -11.1807   -11.1807   -11.1802
                     AG         B2U        B3U        AG         B1G 
    1  C  1  S   -0.002373   0.001475   0.486103   0.486759   0.471771
    2  C  1  S   -0.000156   0.000064   0.008695   0.008714   0.012277
    3  C  1  X    0.000117  -0.000054  -0.000067  -0.000067  -0.000021
    4  C  1  Y    0.000014   0.000124  -0.001189  -0.001194   0.001734
    5  C  1  Z   -0.000000  -0.000000   0.000000   0.000000   0.000000
    6  C  2  S   -0.002373   0.001475  -0.486103   0.486759  -0.471771
    7  C  2  S   -0.000156   0.000064  -0.008695   0.008714  -0.012277
    8  C  2  X   -0.000117   0.000054  -0.000067   0.000067  -0.000021
    9  C  2  Y    0.000014   0.000124   0.001189  -0.001194  -0.001734
   10  C  2  Z   -0.000000  -0.000000   0.000000   0.000000   0.000000
   11  C  3  S   -0.002373  -0.001475   0.486103   0.486759  -0.471771
   12  C  3  S   -0.000156  -0.000064   0.008695   0.008714  -0.012277
   13  C  3  X    0.000117   0.000054  -0.000067  -0.000067   0.000021
   14  C  3  Y   -0.000014   0.000124   0.001189   0.001194   0.001734
   15  C  3  Z   -0.000000  -0.000000   0.000000   0.000000   0.000000
   16  C  4  S   -0.002373  -0.001475  -0.486103   0.486759   0.471771
   17  C  4  S   -0.000156  -0.000064  -0.008695   0.008714   0.012277
   18  C  4  X   -0.000117  -0.000054  -0.000067   0.000067   0.000021
   19  C  4  Y   -0.000014   0.000124  -0.001189   0.001194  -0.001734
   20  C  4  Z   -0.000000  -0.000000   0.000000   0.000000   0.000000
   21  H  5  S   -0.000023  -0.000010  -0.002165  -0.002169   0.002049
   22  H  6  S   -0.000023  -0.000010   0.002165  -0.002169  -0.002049
   23  H  7  S   -0.000023   0.000010  -0.002165  -0.002169  -0.002049
   24  H  8  S   -0.000023   0.000010   0.002165  -0.002169   0.002049
   25  C  9  S    0.015877   0.019074   0.107226   0.104210   0.158179
   26  C  9  S   -0.002607  -0.002622   0.000265   0.000161   0.001433
   27  C  9  X    0.001841   0.001794  -0.001275  -0.001237  -0.001193
   28  C  9  Y   -0.000969  -0.001007  -0.000691  -0.000709  -0.000640
   29  C  9  Z   -0.000000  -0.000000   0.000000   0.000000   0.000000
   30  C 10  S    0.015877   0.019074  -0.107226   0.104210  -0.158179
   31  C 10  S   -0.002607  -0.002622  -0.000265   0.000161  -0.001433
   32  C 10  X   -0.001841  -0.001794  -0.001275   0.001237  -0.001193
   33  C 10  Y   -0.000969  -0.001007   0.000691  -0.000709   0.000640
   34  C 10  Z   -0.000000  -0.000000   0.000000   0.000000   0.000000
   35  C 11  S    0.015877  -0.019074   0.107226   0.104210  -0.158179
   36  C 11  S   -0.002607   0.002622   0.000265   0.000161  -0.001433
   37  C 11  X    0.001841  -0.001794  -0.001275  -0.001237   0.001193
   38  C 11  Y    0.000969  -0.001007   0.000691   0.000709  -0.000640
   39  C 11  Z   -0.000000  -0.000000   0.000000   0.000000   0.000000
   40  C 12  S    0.015877  -0.019074  -0.107226   0.104210   0.158179
   41  C 12  S   -0.002607   0.002622  -0.000265   0.000161   0.001433
   42  C 12  X   -0.001841   0.001794  -0.001275   0.001237   0.001193
   43  C 12  Y    0.000969  -0.001007  -0.000691   0.000709   0.000640
   44  C 12  Z   -0.000000  -0.000000   0.000000   0.000000   0.000000
   45  C 13  S    0.703564   0.703073   0.000000  -0.001235   0.000000
   46  C 13  S    0.013234   0.019132   0.000000  -0.000943   0.000000
   47  C 13  X   -0.000000  -0.000000  -0.000680   0.000000  -0.000701
   48  C 13  Y   -0.001992   0.002108   0.000000   0.000230   0.000000
   49  C 13  Z   -0.000000  -0.000000   0.000000   0.000000   0.000000
   50  C 14  S    0.703564  -0.703073   0.000000  -0.001235   0.000000
   51  C 14  S    0.013234  -0.019132   0.000000  -0.000943   0.000000
   52  C 14  X   -0.000000  -0.000000  -0.000680   0.000000   0.000701
   53  C 14  Y    0.001992   0.002108   0.000000  -0.000230   0.000000
   54  C 14  Z   -0.000000  -0.000000   0.000000   0.000000   0.000000
   55  H 15  S   -0.000113  -0.000102  -0.000492  -0.000502  -0.000685
   56  H 16  S   -0.000113  -0.000102   0.000492  -0.000502   0.000685
   57  H 17  S   -0.000113   0.000102  -0.000492  -0.000502   0.000685
   58  H 18  S   -0.000113   0.000102   0.000492  -0.000502  -0.000685

                      6          7          8          9         10
                  -11.1802   -11.1789   -11.1789   -11.1789   -11.1789
                     B2U        B3U        B1G        AG         B2U 
    1  C  1  S    0.473438  -0.107054  -0.157990  -0.104007  -0.152917
    2  C  1  S    0.012332  -0.004251  -0.006586  -0.004191  -0.006463
    3  C  1  X   -0.000024   0.001364   0.001420   0.001380   0.001430
    4  C  1  Y    0.001727   0.001022   0.000203   0.000994   0.000203
    5  C  1  Z    0.000000   0.000000  -0.000000  -0.000000  -0.000000
    6  C  2  S    0.473438   0.107054   0.157990  -0.104007  -0.152917
    7  C  2  S    0.012332   0.004251   0.006586  -0.004191  -0.006463
    8  C  2  X    0.000024   0.001364   0.001420  -0.001380  -0.001430
    9  C  2  Y    0.001727  -0.001022  -0.000203   0.000994   0.000203
   10  C  2  Z    0.000000   0.000000  -0.000000  -0.000000  -0.000000
   11  C  3  S   -0.473438  -0.107054   0.157990  -0.104007   0.152917
   12  C  3  S   -0.012332  -0.004251   0.006586  -0.004191   0.006463
   13  C  3  X    0.000024   0.001364  -0.001420   0.001380  -0.001430
   14  C  3  Y    0.001727  -0.001022   0.000203  -0.000994   0.000203
   15  C  3  Z    0.000000   0.000000  -0.000000  -0.000000  -0.000000
   16  C  4  S   -0.473438   0.107054  -0.157990  -0.104007   0.152917
   17  C  4  S   -0.012332   0.004251  -0.006586  -0.004191   0.006463
   18  C  4  X   -0.000024   0.001364  -0.001420  -0.001380   0.001430
   19  C  4  Y    0.001727   0.001022  -0.000203  -0.000994   0.000203
   20  C  4  Z    0.000000   0.000000  -0.000000  -0.000000  -0.000000
   21  H  5  S    0.002057   0.000447  -0.000677   0.000423  -0.000650
   22  H  6  S    0.002057  -0.000447   0.000677   0.000423  -0.000650
   23  H  7  S   -0.002057   0.000447   0.000677   0.000423   0.000650
   24  H  8  S   -0.002057  -0.000447  -0.000677   0.000423   0.000650
   25  C  9  S    0.152945   0.485952   0.471810   0.486365   0.473161
   26  C  9  S    0.001383   0.011711   0.011737   0.011820   0.011880
   27  C  9  X   -0.001223   0.000388   0.000508   0.000317   0.000435
   28  C  9  Y   -0.000618   0.000515   0.000725   0.000460   0.000720
   29  C  9  Z    0.000000   0.000000  -0.000000  -0.000000  -0.000000
   30  C 10  S    0.152945  -0.485952  -0.471810   0.486365   0.473161
   31  C 10  S    0.001383  -0.011711  -0.011737   0.011820   0.011880
   32  C 10  X    0.001223   0.000388   0.000508  -0.000317  -0.000435
   33  C 10  Y   -0.000618  -0.000515  -0.000725   0.000460   0.000720
   34  C 10  Z    0.000000   0.000000  -0.000000  -0.000000  -0.000000
   35  C 11  S   -0.152945   0.485952  -0.471810   0.486365  -0.473161
   36  C 11  S   -0.001383   0.011711  -0.011737   0.011820  -0.011880
   37  C 11  X    0.001223   0.000388  -0.000508   0.000317  -0.000435
   38  C 11  Y   -0.000618  -0.000515   0.000725  -0.000460   0.000720
   39  C 11  Z    0.000000   0.000000  -0.000000  -0.000000  -0.000000
   40  C 12  S   -0.152945  -0.485952   0.471810   0.486365  -0.473161
   41  C 12  S   -0.001383  -0.011711   0.011737   0.011820  -0.011880
   42  C 12  X   -0.001223   0.000388  -0.000508  -0.000317   0.000435
   43  C 12  Y   -0.000618   0.000515  -0.000725  -0.000460   0.000720
   44  C 12  Z    0.000000   0.000000  -0.000000  -0.000000  -0.000000
   45  C 13  S   -0.010148   0.000000  -0.000000  -0.022192  -0.024607
   46  C 13  S   -0.001471   0.000000  -0.000000  -0.004560  -0.004894
   47  C 13  X    0.000000  -0.002526  -0.002559  -0.000000  -0.000000
   48  C 13  Y    0.000470   0.000000  -0.000000   0.001398   0.001174
   49  C 13  Z    0.000000   0.000000  -0.000000  -0.000000  -0.000000
   50  C 14  S    0.010148   0.000000  -0.000000  -0.022192   0.024607
   51  C 14  S    0.001471   0.000000  -0.000000  -0.004560   0.004894
   52  C 14  X    0.000000  -0.002526   0.002559  -0.000000  -0.000000
   53  C 14  Y    0.000470   0.000000  -0.000000  -0.001398   0.001174
   54  C 14  Z    0.000000   0.000000  -0.000000  -0.000000  -0.000000
   55  H 15  S   -0.000691  -0.002099  -0.002012  -0.002191  -0.002088
   56  H 16  S   -0.000691   0.002099   0.002012  -0.002191  -0.002088
   57  H 17  S    0.000691  -0.002099   0.002012  -0.002191   0.002088
   58  H 18  S    0.000691   0.002099  -0.002012  -0.002191   0.002088

                     11         12         13         14         15
                   -1.1132    -1.0485    -0.9895    -0.9471    -0.9218
                     AG         B3U        B2U        AG         B1G 
    1  C  1  S   -0.061722  -0.099996  -0.043476   0.097677  -0.067726
    2  C  1  S    0.160436   0.268710   0.121077  -0.276999   0.192769
    3  C  1  X   -0.038059  -0.040156  -0.046226  -0.013002  -0.056041
    4  C  1  Y    0.014373   0.033237  -0.054754  -0.053346  -0.087759
    5  C  1  Z    0.000000  -0.000000   0.000000  -0.000000   0.000000
    6  C  2  S   -0.061722   0.099996  -0.043476   0.097677   0.067726
    7  C  2  S    0.160436  -0.268710   0.121077  -0.276999  -0.192769
    8  C  2  X    0.038059  -0.040156   0.046226   0.013002  -0.056041
    9  C  2  Y    0.014373  -0.033237  -0.054754  -0.053346   0.087759
   10  C  2  Z    0.000000  -0.000000   0.000000  -0.000000   0.000000
   11  C  3  S   -0.061722  -0.099996   0.043476   0.097677   0.067726
   12  C  3  S    0.160436   0.268710  -0.121077  -0.276999  -0.192769
   13  C  3  X   -0.038059  -0.040156   0.046226  -0.013002   0.056041
   14  C  3  Y   -0.014373  -0.033237  -0.054754   0.053346  -0.087759
   15  C  3  Z    0.000000  -0.000000   0.000000  -0.000000   0.000000
   16  C  4  S   -0.061722   0.099996   0.043476   0.097677  -0.067726
   17  C  4  S    0.160436  -0.268710  -0.121077  -0.276999   0.192769
   18  C  4  X    0.038059  -0.040156  -0.046226   0.013002   0.056041
   19  C  4  Y   -0.014373   0.033237  -0.054754   0.053346   0.087759
   20  C  4  Z    0.000000  -0.000000   0.000000  -0.000000   0.000000
   21  H  5  S    0.026047   0.053339  -0.029622  -0.078183  -0.058945
   22  H  6  S    0.026047  -0.053339  -0.029622  -0.078183   0.058945
   23  H  7  S    0.026047   0.053339   0.029622  -0.078183   0.058945
   24  H  8  S    0.026047  -0.053339   0.029622  -0.078183  -0.058945
   25  C  9  S   -0.074217  -0.069241  -0.099041  -0.004472  -0.098651
   26  C  9  S    0.193980   0.184426   0.275775   0.013178   0.282471
   27  C  9  X   -0.016029   0.043839  -0.022741  -0.115097   0.051615
   28  C  9  Y    0.044339   0.040578   0.021183  -0.001360   0.017019
   29  C  9  Z    0.000000  -0.000000   0.000000  -0.000000   0.000000
   30  C 10  S   -0.074217   0.069241  -0.099041  -0.004472   0.098651
   31  C 10  S    0.193980  -0.184426   0.275775   0.013178  -0.282471
   32  C 10  X    0.016029   0.043839   0.022741   0.115097   0.051615
   33  C 10  Y    0.044339  -0.040578   0.021183  -0.001360  -0.017019
   34  C 10  Z    0.000000  -0.000000   0.000000  -0.000000   0.000000
   35  C 11  S   -0.074217  -0.069241   0.099041  -0.004472   0.098651
   36  C 11  S    0.193980   0.184426  -0.275775   0.013178  -0.282471
   37  C 11  X   -0.016029   0.043839   0.022741  -0.115097  -0.051615
   38  C 11  Y   -0.044339  -0.040578   0.021183   0.001360   0.017019
   39  C 11  Z    0.000000  -0.000000   0.000000  -0.000000   0.000000
   40  C 12  S   -0.074217   0.069241   0.099041  -0.004472  -0.098651
   41  C 12  S    0.193980  -0.184426  -0.275775   0.013178   0.282471
   42  C 12  X    0.016029   0.043839  -0.022741   0.115097  -0.051615
   43  C 12  Y   -0.044339   0.040578   0.021183   0.001360  -0.017019
   44  C 12  Z    0.000000  -0.000000   0.000000  -0.000000   0.000000
   45  C 13  S   -0.110416  -0.000000  -0.083215  -0.103474   0.000000
   46  C 13  S    0.289275  -0.000000   0.231791   0.296072   0.000000
   47  C 13  X    0.000000   0.083274   0.000000  -0.000000   0.105656
   48  C 13  Y    0.023920  -0.000000  -0.104436   0.047512   0.000000
   49  C 13  Z    0.000000  -0.000000   0.000000  -0.000000   0.000000
   50  C 14  S   -0.110416  -0.000000   0.083215  -0.103474   0.000000
   51  C 14  S    0.289275  -0.000000  -0.231791   0.296072   0.000000
   52  C 14  X    0.000000   0.083274   0.000000  -0.000000  -0.105656
   53  C 14  Y   -0.023920  -0.000000  -0.104436  -0.047512   0.000000
   54  C 14  Z    0.000000  -0.000000   0.000000  -0.000000   0.000000
   55  H 15  S    0.033035   0.034581   0.071935   0.004734   0.080518
   56  H 16  S    0.033035  -0.034581   0.071935   0.004734  -0.080518
   57  H 17  S    0.033035   0.034581  -0.071935   0.004734  -0.080518
   58  H 18  S    0.033035  -0.034581  -0.071935   0.004734   0.080518

                     16         17         18         19         20
                   -0.7954    -0.7773    -0.7555    -0.6533    -0.6490
                     B3U        B2U        AG         B1G        B3U 
    1  C  1  S    0.062316   0.077815  -0.021604  -0.066198  -0.003004
    2  C  1  S   -0.192356  -0.235087   0.063652   0.216501   0.004179
    3  C  1  X   -0.122649  -0.001701   0.045866   0.103743  -0.104636
    4  C  1  Y   -0.099711   0.109643   0.109839  -0.096771   0.164980
    5  C  1  Z   -0.000000   0.000000  -0.000000  -0.000000   0.000000
    6  C  2  S   -0.062316   0.077815  -0.021604   0.066198   0.003004
    7  C  2  S    0.192356  -0.235087   0.063652  -0.216501  -0.004179
    8  C  2  X   -0.122649   0.001701  -0.045866   0.103743  -0.104636
    9  C  2  Y    0.099711   0.109643   0.109839   0.096771  -0.164980
   10  C  2  Z   -0.000000   0.000000  -0.000000  -0.000000   0.000000
   11  C  3  S    0.062316  -0.077815  -0.021604   0.066198  -0.003004
   12  C  3  S   -0.192356   0.235087   0.063652  -0.216501   0.004179
   13  C  3  X   -0.122649   0.001701   0.045866  -0.103743  -0.104636
   14  C  3  Y    0.099711   0.109643  -0.109839  -0.096771  -0.164980
   15  C  3  Z   -0.000000   0.000000  -0.000000  -0.000000   0.000000
   16  C  4  S   -0.062316  -0.077815  -0.021604  -0.066198   0.003004
   17  C  4  S    0.192356   0.235087   0.063652   0.216501  -0.004179
   18  C  4  X   -0.122649  -0.001701  -0.045866  -0.103743  -0.104636
   19  C  4  Y   -0.099711   0.109643  -0.109839   0.096771   0.164980
   20  C  4  Z   -0.000000   0.000000  -0.000000  -0.000000   0.000000
   21  H  5  S   -0.102502   0.122445   0.018203  -0.194960  -0.118463
   22  H  6  S    0.102502   0.122445   0.018203   0.194960   0.118463
   23  H  7  S   -0.102502  -0.122445   0.018203   0.194960  -0.118463
   24  H  8  S    0.102502  -0.122445   0.018203  -0.194960   0.118463
   25  C  9  S   -0.079028   0.001755   0.068584   0.056610   0.021861
   26  C  9  S    0.236671  -0.002963  -0.211972  -0.188493  -0.080036
   27  C  9  X   -0.046994  -0.191104  -0.017172   0.123692  -0.066189
   28  C  9  Y   -0.007449  -0.005810   0.125652   0.043661   0.192007
   29  C  9  Z   -0.000000   0.000000  -0.000000  -0.000000   0.000000
   30  C 10  S    0.079028   0.001755   0.068584  -0.056610  -0.021861
   31  C 10  S   -0.236671  -0.002963  -0.211972   0.188493   0.080036
   32  C 10  X   -0.046994   0.191104   0.017172   0.123692  -0.066189
   33  C 10  Y    0.007449  -0.005810   0.125652  -0.043661  -0.192007
   34  C 10  Z   -0.000000   0.000000  -0.000000  -0.000000   0.000000
   35  C 11  S   -0.079028  -0.001755   0.068584  -0.056610   0.021861
   36  C 11  S    0.236671   0.002963  -0.211972   0.188493  -0.080036
   37  C 11  X   -0.046994   0.191104  -0.017172  -0.123692  -0.066189
   38  C 11  Y    0.007449  -0.005810  -0.125652   0.043661  -0.192007
   39  C 11  Z   -0.000000   0.000000  -0.000000  -0.000000   0.000000
   40  C 12  S    0.079028  -0.001755   0.068584   0.056610  -0.021861
   41  C 12  S   -0.236671   0.002963  -0.211972  -0.188493   0.080036
   42  C 12  X   -0.046994  -0.191104   0.017172  -0.123692  -0.066189
   43  C 12  Y   -0.007449  -0.005810  -0.125652  -0.043661   0.192007
   44  C 12  Z   -0.000000   0.000000  -0.000000  -0.000000   0.000000
   45  C 13  S   -0.000000  -0.079804  -0.059313  -0.000000   0.000000
   46  C 13  S   -0.000000   0.240596   0.182082  -0.000000   0.000000
   47  C 13  X    0.176848   0.000000  -0.000000  -0.165860   0.148849
   48  C 13  Y   -0.000000  -0.113545   0.219783  -0.000000   0.000000
   49  C 13  Z   -0.000000   0.000000  -0.000000  -0.000000   0.000000
   50  C 14  S   -0.000000   0.079804  -0.059313  -0.000000   0.000000
   51  C 14  S   -0.000000  -0.240596   0.182082  -0.000000   0.000000
   52  C 14  X    0.176848   0.000000  -0.000000   0.165860   0.148849
   53  C 14  Y   -0.000000  -0.113545  -0.219783  -0.000000   0.000000
   54  C 14  Z   -0.000000   0.000000  -0.000000  -0.000000   0.000000
   55  H 15  S    0.091838   0.002050  -0.160648  -0.110642  -0.165549
   56  H 16  S   -0.091838   0.002050  -0.160648   0.110642   0.165549
   57  H 17  S    0.091838  -0.002050  -0.160648   0.110642  -0.165549
   58  H 18  S   -0.091838  -0.002050  -0.160648  -0.110642   0.165549

                     21         22         23         24         25
                   -0.6213    -0.5722    -0.5500    -0.5296    -0.5178
                     AG         B2U        AG         B1G        B3U 
    1  C  1  S   -0.004055  -0.032922   0.010801  -0.016984   0.016407
    2  C  1  S    0.021487   0.113766  -0.038386   0.057600  -0.054048
    3  C  1  X    0.262010   0.015785   0.047537  -0.122633   0.224624
    4  C  1  Y    0.022160  -0.025960  -0.278574   0.003090   0.073408
    5  C  1  Z    0.000000   0.000000   0.000000  -0.000000  -0.000000
    6  C  2  S   -0.004055  -0.032922   0.010801   0.016984  -0.016407
    7  C  2  S    0.021487   0.113766  -0.038386  -0.057600   0.054048
    8  C  2  X   -0.262010  -0.015785  -0.047537  -0.122633   0.224624
    9  C  2  Y    0.022160  -0.025960  -0.278574  -0.003090  -0.073408
   10  C  2  Z    0.000000   0.000000   0.000000  -0.000000  -0.000000
   11  C  3  S   -0.004055   0.032922   0.010801   0.016984   0.016407
   12  C  3  S    0.021487  -0.113766  -0.038386  -0.057600  -0.054048
   13  C  3  X    0.262010  -0.015785   0.047537   0.122633   0.224624
   14  C  3  Y   -0.022160  -0.025960   0.278574   0.003090  -0.073408
   15  C  3  Z    0.000000   0.000000   0.000000  -0.000000  -0.000000
   16  C  4  S   -0.004055   0.032922   0.010801  -0.016984  -0.016407
   17  C  4  S    0.021487  -0.113766  -0.038386   0.057600   0.054048
   18  C  4  X   -0.262010   0.015785  -0.047537   0.122633   0.224624
   19  C  4  Y   -0.022160  -0.025960   0.278574  -0.003090   0.073408
   20  C  4  Z    0.000000   0.000000   0.000000  -0.000000  -0.000000
   21  H  5  S    0.171074  -0.077895   0.135718   0.066546   0.118110
   22  H  6  S    0.171074  -0.077895   0.135718  -0.066546  -0.118110
   23  H  7  S    0.171074   0.077895   0.135718  -0.066546   0.118110
   24  H  8  S    0.171074   0.077895   0.135718   0.066546  -0.118110
   25  C  9  S    0.020018   0.019267   0.001862  -0.008234  -0.008815
   26  C  9  S   -0.059730  -0.066645  -0.008173   0.022089   0.036683
   27  C  9  X   -0.157150  -0.052053   0.147890  -0.010008  -0.255170
   28  C  9  Y   -0.104161   0.253729  -0.022781   0.285561  -0.023146
   29  C  9  Z    0.000000   0.000000   0.000000  -0.000000  -0.000000
   30  C 10  S    0.020018   0.019267   0.001862   0.008234   0.008815
   31  C 10  S   -0.059730  -0.066645  -0.008173  -0.022089  -0.036683
   32  C 10  X    0.157150   0.052053  -0.147890  -0.010008  -0.255170
   33  C 10  Y   -0.104161   0.253729  -0.022781  -0.285561   0.023146
   34  C 10  Z    0.000000   0.000000   0.000000  -0.000000  -0.000000
   35  C 11  S    0.020018  -0.019267   0.001862   0.008234  -0.008815
   36  C 11  S   -0.059730   0.066645  -0.008173  -0.022089   0.036683
   37  C 11  X   -0.157150   0.052053   0.147890   0.010008  -0.255170
   38  C 11  Y    0.104161   0.253729   0.022781   0.285561   0.023146
   39  C 11  Z    0.000000   0.000000   0.000000  -0.000000  -0.000000
   40  C 12  S    0.020018  -0.019267   0.001862  -0.008234   0.008815
   41  C 12  S   -0.059730   0.066645  -0.008173   0.022089  -0.036683
   42  C 12  X    0.157150  -0.052053  -0.147890   0.010008  -0.255170
   43  C 12  Y    0.104161   0.253729   0.022781  -0.285561  -0.023146
   44  C 12  Z    0.000000   0.000000   0.000000  -0.000000  -0.000000
   45  C 13  S   -0.036479  -0.068989  -0.018163  -0.000000  -0.000000
   46  C 13  S    0.126190   0.237853   0.069410  -0.000000  -0.000000
   47  C 13  X    0.000000   0.000000   0.000000   0.175239   0.279253
   48  C 13  Y   -0.079262  -0.062622   0.292556  -0.000000  -0.000000
   49  C 13  Z    0.000000   0.000000   0.000000  -0.000000  -0.000000
   50  C 14  S   -0.036479   0.068989  -0.018163  -0.000000  -0.000000
   51  C 14  S    0.126190  -0.237853   0.069410  -0.000000  -0.000000
   52  C 14  X    0.000000   0.000000   0.000000  -0.175239   0.279253
   53  C 14  Y    0.079262  -0.062622  -0.292556  -0.000000  -0.000000
   54  C 14  Z    0.000000   0.000000   0.000000  -0.000000  -0.000000
   55  H 15  S    0.049040  -0.253184   0.015537  -0.236278   0.038465
   56  H 16  S    0.049040  -0.253184   0.015537   0.236278  -0.038465
   57  H 17  S    0.049040   0.253184   0.015537   0.236278   0.038465
   58  H 18  S    0.049040   0.253184   0.015537  -0.236278  -0.038465

                     26         27         28         29         30
                   -0.5089    -0.4869    -0.4672    -0.4215    -0.4126
                     B2U        B1U        B3U        B1G        AG  
    1  C  1  S   -0.006882  -0.000000  -0.010001   0.006697  -0.002902
    2  C  1  S    0.033692  -0.000000   0.036492  -0.014462   0.008595
    3  C  1  X    0.269072  -0.000000  -0.031026   0.224906   0.006986
    4  C  1  Y   -0.018951  -0.000000   0.301675   0.024835   0.201930
    5  C  1  Z   -0.000000   0.205999  -0.000000  -0.000000   0.000000
    6  C  2  S   -0.006882  -0.000000   0.010001  -0.006697  -0.002902
    7  C  2  S    0.033692  -0.000000  -0.036492   0.014462   0.008595
    8  C  2  X   -0.269072  -0.000000  -0.031026   0.224906  -0.006986
    9  C  2  Y   -0.018951  -0.000000  -0.301675  -0.024835   0.201930
   10  C  2  Z   -0.000000   0.205999  -0.000000  -0.000000   0.000000
   11  C  3  S    0.006882  -0.000000  -0.010001  -0.006697  -0.002902
   12  C  3  S   -0.033692  -0.000000   0.036492   0.014462   0.008595
   13  C  3  X   -0.269072  -0.000000  -0.031026  -0.224906   0.006986
   14  C  3  Y   -0.018951  -0.000000  -0.301675   0.024835  -0.201930
   15  C  3  Z   -0.000000   0.205999  -0.000000  -0.000000   0.000000
   16  C  4  S    0.006882  -0.000000   0.010001   0.006697  -0.002902
   17  C  4  S   -0.033692  -0.000000  -0.036492  -0.014462   0.008595
   18  C  4  X    0.269072  -0.000000  -0.031026  -0.224906  -0.006986
   19  C  4  Y   -0.018951  -0.000000   0.301675  -0.024835  -0.201930
   20  C  4  Z   -0.000000   0.205999  -0.000000  -0.000000   0.000000
   21  H  5  S   -0.245371  -0.000000  -0.161223  -0.197221  -0.102184
   22  H  6  S   -0.245371  -0.000000   0.161223   0.197221  -0.102184
   23  H  7  S    0.245371  -0.000000  -0.161223   0.197221  -0.102184
   24  H  8  S    0.245371  -0.000000   0.161223  -0.197221  -0.102184
   25  C  9  S    0.032086  -0.000000  -0.001926  -0.006436   0.014298
   26  C  9  S   -0.111106  -0.000000   0.016876   0.027514  -0.048022
   27  C  9  X   -0.155482  -0.000000  -0.038976  -0.283556   0.055470
   28  C  9  Y   -0.115942  -0.000000  -0.182647   0.028442  -0.209684
   29  C  9  Z   -0.000000   0.242893  -0.000000  -0.000000   0.000000
   30  C 10  S    0.032086  -0.000000   0.001926   0.006436   0.014298
   31  C 10  S   -0.111106  -0.000000  -0.016876  -0.027514  -0.048022
   32  C 10  X    0.155482  -0.000000  -0.038976  -0.283556  -0.055470
   33  C 10  Y   -0.115942  -0.000000   0.182647  -0.028442  -0.209684
   34  C 10  Z   -0.000000   0.242893  -0.000000  -0.000000   0.000000
   35  C 11  S   -0.032086  -0.000000  -0.001926   0.006436   0.014298
   36  C 11  S    0.111106  -0.000000   0.016876  -0.027514  -0.048022
   37  C 11  X    0.155482  -0.000000  -0.038976   0.283556   0.055470
   38  C 11  Y   -0.115942  -0.000000   0.182647   0.028442   0.209684
   39  C 11  Z   -0.000000   0.242893  -0.000000  -0.000000   0.000000
   40  C 12  S   -0.032086  -0.000000   0.001926  -0.006436   0.014298
   41  C 12  S    0.111106  -0.000000  -0.016876   0.027514  -0.048022
   42  C 12  X   -0.155482  -0.000000  -0.038976   0.283556  -0.055470
   43  C 12  Y   -0.115942  -0.000000  -0.182647  -0.028442   0.209684
   44  C 12  Z   -0.000000   0.242893  -0.000000  -0.000000   0.000000
   45  C 13  S   -0.022637  -0.000000  -0.000000  -0.000000  -0.001760
   46  C 13  S    0.075968  -0.000000  -0.000000  -0.000000   0.004522
   47  C 13  X   -0.000000  -0.000000  -0.121668   0.284235   0.000000
   48  C 13  Y   -0.066187  -0.000000  -0.000000  -0.000000   0.359740
   49  C 13  Z   -0.000000   0.342382  -0.000000  -0.000000   0.000000
   50  C 14  S    0.022637  -0.000000  -0.000000  -0.000000  -0.001760
   51  C 14  S   -0.075968  -0.000000  -0.000000  -0.000000   0.004522
   52  C 14  X   -0.000000  -0.000000  -0.121668  -0.284235   0.000000
   53  C 14  Y   -0.066187  -0.000000  -0.000000  -0.000000  -0.359740
   54  C 14  Z   -0.000000   0.342382  -0.000000  -0.000000   0.000000
   55  H 15  S    0.050483  -0.000000   0.186056  -0.015721   0.226668
   56  H 16  S    0.050483  -0.000000  -0.186056   0.015721   0.226668
   57  H 17  S   -0.050483  -0.000000   0.186056   0.015721   0.226668
   58  H 18  S   -0.050483  -0.000000  -0.186056  -0.015721   0.226668

                     31         32         33         34         35
                   -0.3976    -0.3331    -0.2626    -0.2288     0.1975
                     B2G        B3G        B1U        AU         B2G 
    1  C  1  S   -0.000000   0.000000   0.000000   0.000000  -0.000000
    2  C  1  S   -0.000000   0.000000   0.000000   0.000000  -0.000000
    3  C  1  X   -0.000000   0.000000   0.000000   0.000000  -0.000000
    4  C  1  Y   -0.000000   0.000000   0.000000   0.000000  -0.000000
    5  C  1  Z    0.356575   0.179279  -0.353707   0.263461  -0.302019
    6  C  2  S   -0.000000   0.000000   0.000000   0.000000  -0.000000
    7  C  2  S   -0.000000   0.000000   0.000000   0.000000  -0.000000
    8  C  2  X   -0.000000   0.000000   0.000000   0.000000  -0.000000
    9  C  2  Y   -0.000000   0.000000   0.000000   0.000000  -0.000000
   10  C  2  Z   -0.356575   0.179279  -0.353707  -0.263461   0.302019
   11  C  3  S   -0.000000   0.000000   0.000000   0.000000  -0.000000
   12  C  3  S   -0.000000   0.000000   0.000000   0.000000  -0.000000
   13  C  3  X   -0.000000   0.000000   0.000000   0.000000  -0.000000
   14  C  3  Y   -0.000000   0.000000   0.000000   0.000000  -0.000000
   15  C  3  Z    0.356575  -0.179279  -0.353707  -0.263461  -0.302019
   16  C  4  S   -0.000000   0.000000   0.000000   0.000000  -0.000000
   17  C  4  S   -0.000000   0.000000   0.000000   0.000000  -0.000000
   18  C  4  X   -0.000000   0.000000   0.000000   0.000000  -0.000000
   19  C  4  Y   -0.000000   0.000000   0.000000   0.000000  -0.000000
   20  C  4  Z   -0.356575  -0.179279  -0.353707   0.263461   0.302019
   21  H  5  S   -0.000000   0.000000   0.000000   0.000000  -0.000000
   22  H  6  S   -0.000000   0.000000   0.000000   0.000000  -0.000000
   23  H  7  S   -0.000000   0.000000   0.000000   0.000000  -0.000000
   24  H  8  S   -0.000000   0.000000   0.000000   0.000000  -0.000000
   25  C  9  S   -0.000000   0.000000   0.000000   0.000000  -0.000000
   26  C  9  S   -0.000000   0.000000   0.000000   0.000000  -0.000000
   27  C  9  X   -0.000000   0.000000   0.000000   0.000000  -0.000000
   28  C  9  Y   -0.000000   0.000000   0.000000   0.000000  -0.000000
   29  C  9  Z    0.236488   0.355190  -0.002847   0.398401   0.459002
   30  C 10  S   -0.000000   0.000000   0.000000   0.000000  -0.000000
   31  C 10  S   -0.000000   0.000000   0.000000   0.000000  -0.000000
   32  C 10  X   -0.000000   0.000000   0.000000   0.000000  -0.000000
   33  C 10  Y   -0.000000   0.000000   0.000000   0.000000  -0.000000
   34  C 10  Z   -0.236488   0.355190  -0.002847  -0.398401  -0.459002
   35  C 11  S   -0.000000   0.000000   0.000000   0.000000  -0.000000
   36  C 11  S   -0.000000   0.000000   0.000000   0.000000  -0.000000
   37  C 11  X   -0.000000   0.000000   0.000000   0.000000  -0.000000
   38  C 11  Y   -0.000000   0.000000   0.000000   0.000000  -0.000000
   39  C 11  Z    0.236488  -0.355190  -0.002847  -0.398401   0.459002
   40  C 12  S   -0.000000   0.000000   0.000000   0.000000  -0.000000
   41  C 12  S   -0.000000   0.000000   0.000000   0.000000  -0.000000
   42  C 12  X   -0.000000   0.000000   0.000000   0.000000  -0.000000
   43  C 12  Y   -0.000000   0.000000   0.000000   0.000000  -0.000000
   44  C 12  Z   -0.236488  -0.355190  -0.002847   0.398401  -0.459002
   45  C 13  S   -0.000000   0.000000   0.000000   0.000000  -0.000000
   46  C 13  S   -0.000000   0.000000   0.000000   0.000000  -0.000000
   47  C 13  X   -0.000000   0.000000   0.000000   0.000000  -0.000000
   48  C 13  Y   -0.000000   0.000000   0.000000   0.000000  -0.000000
   49  C 13  Z   -0.000000   0.288330   0.427493   0.000000  -0.000000
   50  C 14  S   -0.000000   0.000000   0.000000   0.000000  -0.000000
   51  C 14  S   -0.000000   0.000000   0.000000   0.000000  -0.000000
   52  C 14  X   -0.000000   0.000000   0.000000   0.000000  -0.000000
   53  C 14  Y   -0.000000   0.000000   0.000000   0.000000  -0.000000
   54  C 14  Z   -0.000000  -0.288330   0.427493   0.000000  -0.000000
   55  H 15  S   -0.000000   0.000000   0.000000   0.000000  -0.000000
   56  H 16  S   -0.000000   0.000000   0.000000   0.000000  -0.000000
   57  H 17  S   -0.000000   0.000000   0.000000   0.000000  -0.000000
   58  H 18  S   -0.000000   0.000000   0.000000   0.000000  -0.000000

                     36         37         38         39         40
                    0.2397     0.3227     0.4058     0.5415     0.5709
                     B3G        B1U        AU         B3G        AG  
    1  C  1  S    0.000000  -0.000000   0.000000  -0.000000   0.044936
    2  C  1  S    0.000000  -0.000000   0.000000  -0.000000  -0.304780
    3  C  1  X    0.000000  -0.000000   0.000000  -0.000000  -0.261996
    4  C  1  Y    0.000000  -0.000000   0.000000  -0.000000   0.137576
    5  C  1  Z   -0.435133  -0.225056   0.511835   0.331575  -0.000000
    6  C  2  S    0.000000  -0.000000   0.000000  -0.000000   0.044936
    7  C  2  S    0.000000  -0.000000   0.000000  -0.000000  -0.304780
    8  C  2  X    0.000000  -0.000000   0.000000  -0.000000   0.261996
    9  C  2  Y    0.000000  -0.000000   0.000000  -0.000000   0.137576
   10  C  2  Z   -0.435133  -0.225056  -0.511835   0.331575  -0.000000
   11  C  3  S    0.000000  -0.000000   0.000000  -0.000000   0.044936
   12  C  3  S    0.000000  -0.000000   0.000000  -0.000000  -0.304780
   13  C  3  X    0.000000  -0.000000   0.000000  -0.000000  -0.261996
   14  C  3  Y    0.000000  -0.000000   0.000000  -0.000000  -0.137576
   15  C  3  Z    0.435133  -0.225056  -0.511835  -0.331575  -0.000000
   16  C  4  S    0.000000  -0.000000   0.000000  -0.000000   0.044936
   17  C  4  S    0.000000  -0.000000   0.000000  -0.000000  -0.304780
   18  C  4  X    0.000000  -0.000000   0.000000  -0.000000   0.261996
   19  C  4  Y    0.000000  -0.000000   0.000000  -0.000000  -0.137576
   20  C  4  Z    0.435133  -0.225056   0.511835  -0.331575  -0.000000
   21  H  5  S    0.000000  -0.000000   0.000000  -0.000000   0.485113
   22  H  6  S    0.000000  -0.000000   0.000000  -0.000000   0.485113
   23  H  7  S    0.000000  -0.000000   0.000000  -0.000000   0.485113
   24  H  8  S    0.000000  -0.000000   0.000000  -0.000000   0.485113
   25  C  9  S    0.000000  -0.000000   0.000000  -0.000000   0.007380
   26  C  9  S    0.000000  -0.000000   0.000000  -0.000000  -0.060692
   27  C  9  X    0.000000  -0.000000   0.000000  -0.000000  -0.157427
   28  C  9  Y    0.000000  -0.000000   0.000000  -0.000000   0.287608
   29  C  9  Z    0.000662   0.467525  -0.335850  -0.396381  -0.000000
   30  C 10  S    0.000000  -0.000000   0.000000  -0.000000   0.007380
   31  C 10  S    0.000000  -0.000000   0.000000  -0.000000  -0.060692
   32  C 10  X    0.000000  -0.000000   0.000000  -0.000000   0.157427
   33  C 10  Y    0.000000  -0.000000   0.000000  -0.000000   0.287608
   34  C 10  Z    0.000662   0.467525   0.335850  -0.396381  -0.000000
   35  C 11  S    0.000000  -0.000000   0.000000  -0.000000   0.007380
   36  C 11  S    0.000000  -0.000000   0.000000  -0.000000  -0.060692
   37  C 11  X    0.000000  -0.000000   0.000000  -0.000000  -0.157427
   38  C 11  Y    0.000000  -0.000000   0.000000  -0.000000  -0.287608
   39  C 11  Z   -0.000662   0.467525   0.335850   0.396381  -0.000000
   40  C 12  S    0.000000  -0.000000   0.000000  -0.000000   0.007380
   41  C 12  S    0.000000  -0.000000   0.000000  -0.000000  -0.060692
   42  C 12  X    0.000000  -0.000000   0.000000  -0.000000   0.157427
   43  C 12  Y    0.000000  -0.000000   0.000000  -0.000000  -0.287608
   44  C 12  Z   -0.000662   0.467525  -0.335850   0.396381  -0.000000
   45  C 13  S    0.000000  -0.000000   0.000000  -0.000000   0.046977
   46  C 13  S    0.000000  -0.000000   0.000000  -0.000000  -0.321512
   47  C 13  X    0.000000  -0.000000   0.000000  -0.000000  -0.000000
   48  C 13  Y    0.000000  -0.000000   0.000000  -0.000000   0.126511
   49  C 13  Z    0.515112  -0.394023   0.000000   0.576483  -0.000000
   50  C 14  S    0.000000  -0.000000   0.000000  -0.000000   0.046977
   51  C 14  S    0.000000  -0.000000   0.000000  -0.000000  -0.321512
   52  C 14  X    0.000000  -0.000000   0.000000  -0.000000  -0.000000
   53  C 14  Y    0.000000  -0.000000   0.000000  -0.000000  -0.126511
   54  C 14  Z   -0.515112  -0.394023   0.000000  -0.576483  -0.000000
   55  H 15  S    0.000000  -0.000000   0.000000  -0.000000   0.315812
   56  H 16  S    0.000000  -0.000000   0.000000  -0.000000   0.315812
   57  H 17  S    0.000000  -0.000000   0.000000  -0.000000   0.315812
   58  H 18  S    0.000000  -0.000000   0.000000  -0.000000   0.315812

                     41         42         43         44         45
                    0.5939     0.6054     0.6574     0.6884     0.7020
                     B2U        B3U        B3U        B1G        B2U 
    1  C  1  S    0.008874   0.031045  -0.023205  -0.045667   0.073137
    2  C  1  S   -0.063820  -0.223456   0.150089   0.298250  -0.516714
    3  C  1  X   -0.033391  -0.329264   0.225752  -0.104616   0.024748
    4  C  1  Y    0.282200   0.114221  -0.088213   0.298517  -0.296086
    5  C  1  Z    0.000000   0.000000   0.000000   0.000000  -0.000000
    6  C  2  S    0.008874  -0.031045   0.023205   0.045667   0.073137
    7  C  2  S   -0.063820   0.223456  -0.150089  -0.298250  -0.516714
    8  C  2  X    0.033391  -0.329264   0.225752  -0.104616  -0.024748
    9  C  2  Y    0.282200  -0.114221   0.088213  -0.298517  -0.296086
   10  C  2  Z    0.000000   0.000000   0.000000   0.000000  -0.000000
   11  C  3  S   -0.008874   0.031045  -0.023205   0.045667  -0.073137
   12  C  3  S    0.063820  -0.223456   0.150089  -0.298250   0.516714
   13  C  3  X    0.033391  -0.329264   0.225752   0.104616  -0.024748
   14  C  3  Y    0.282200  -0.114221   0.088213   0.298517  -0.296086
   15  C  3  Z    0.000000   0.000000   0.000000   0.000000  -0.000000
   16  C  4  S   -0.008874  -0.031045   0.023205  -0.045667  -0.073137
   17  C  4  S    0.063820   0.223456  -0.150089   0.298250   0.516714
   18  C  4  X   -0.033391  -0.329264   0.225752   0.104616   0.024748
   19  C  4  Y    0.282200   0.114221  -0.088213  -0.298517  -0.296086
   20  C  4  Z    0.000000   0.000000   0.000000   0.000000  -0.000000
   21  H  5  S   -0.214801   0.458335  -0.322361  -0.063656  -0.091928
   22  H  6  S   -0.214801  -0.458335   0.322361   0.063656  -0.091928
   23  H  7  S    0.214801   0.458335  -0.322361   0.063656   0.091928
   24  H  8  S    0.214801  -0.458335   0.322361  -0.063656   0.091928
   25  C  9  S    0.011670   0.059201   0.066191   0.062284   0.028162
   26  C  9  S   -0.073062  -0.407052  -0.447961  -0.428129  -0.184378
   27  C  9  X   -0.037221   0.022954   0.341517  -0.010573   0.356930
   28  C  9  Y    0.393761   0.173706   0.045593   0.345461  -0.073415
   29  C  9  Z    0.000000   0.000000   0.000000   0.000000  -0.000000
   30  C 10  S    0.011670  -0.059201  -0.066191  -0.062284   0.028162
   31  C 10  S   -0.073062   0.407052   0.447961   0.428129  -0.184378
   32  C 10  X    0.037221   0.022954   0.341517  -0.010573  -0.356930
   33  C 10  Y    0.393761  -0.173706  -0.045593  -0.345461  -0.073415
   34  C 10  Z    0.000000   0.000000   0.000000   0.000000  -0.000000
   35  C 11  S   -0.011670   0.059201   0.066191  -0.062284  -0.028162
   36  C 11  S    0.073062  -0.407052  -0.447961   0.428129   0.184378
   37  C 11  X    0.037221   0.022954   0.341517   0.010573  -0.356930
   38  C 11  Y    0.393761  -0.173706  -0.045593   0.345461  -0.073415
   39  C 11  Z    0.000000   0.000000   0.000000   0.000000  -0.000000
   40  C 12  S   -0.011670  -0.059201  -0.066191   0.062284  -0.028162
   41  C 12  S    0.073062   0.407052   0.447961  -0.428129   0.184378
   42  C 12  X   -0.037221   0.022954   0.341517   0.010573   0.356930
   43  C 12  Y    0.393761   0.173706   0.045593  -0.345461  -0.073415
   44  C 12  Z    0.000000   0.000000   0.000000   0.000000  -0.000000
   45  C 13  S   -0.017421   0.000000   0.000000   0.000000  -0.148369
   46  C 13  S    0.100039   0.000000   0.000000   0.000000   1.014425
   47  C 13  X    0.000000   0.101524   0.572289   0.036736  -0.000000
   48  C 13  Y    0.469193   0.000000   0.000000   0.000000   0.239663
   49  C 13  Z    0.000000   0.000000   0.000000   0.000000  -0.000000
   50  C 14  S    0.017421   0.000000   0.000000   0.000000   0.148369
   51  C 14  S   -0.100039   0.000000   0.000000   0.000000  -1.014425
   52  C 14  X    0.000000   0.101524   0.572289  -0.036736  -0.000000
   53  C 14  Y    0.469193   0.000000   0.000000   0.000000   0.239663
   54  C 14  Z    0.000000   0.000000   0.000000   0.000000  -0.000000
   55  H 15  S    0.446254   0.410929   0.288319   0.565618   0.027988
   56  H 16  S    0.446254  -0.410929  -0.288319  -0.565618   0.027988
   57  H 17  S   -0.446254   0.410929   0.288319  -0.565618  -0.027988
   58  H 18  S   -0.446254  -0.410929  -0.288319   0.565618  -0.027988

                     46         47         48         49         50
                    0.7043     0.7131     0.7295     0.7964     0.8386
                     B2U        AG         B1G        AG         B1G 
    1  C  1  S   -0.096751   0.050602  -0.113830  -0.017184   0.022016
    2  C  1  S    0.649153  -0.354029   0.794147   0.122014  -0.179201
    3  C  1  X    0.069234   0.295023   0.207770   0.352490   0.155661
    4  C  1  Y   -0.050632   0.196400   0.039925  -0.139713  -0.519265
    5  C  1  Z   -0.000000   0.000000  -0.000000   0.000000   0.000000
    6  C  2  S   -0.096751   0.050602   0.113830  -0.017184  -0.022016
    7  C  2  S    0.649153  -0.354029  -0.794147   0.122014   0.179201
    8  C  2  X   -0.069234  -0.295023   0.207770  -0.352490   0.155661
    9  C  2  Y   -0.050632   0.196400  -0.039925  -0.139713   0.519265
   10  C  2  Z   -0.000000   0.000000  -0.000000   0.000000   0.000000
   11  C  3  S    0.096751   0.050602   0.113830  -0.017184  -0.022016
   12  C  3  S   -0.649153  -0.354029  -0.794147   0.122014   0.179201
   13  C  3  X   -0.069234   0.295023  -0.207770   0.352490  -0.155661
   14  C  3  Y   -0.050632  -0.196400   0.039925   0.139713  -0.519265
   15  C  3  Z   -0.000000   0.000000  -0.000000   0.000000   0.000000
   16  C  4  S    0.096751   0.050602  -0.113830  -0.017184   0.022016
   17  C  4  S   -0.649153  -0.354029   0.794147   0.122014  -0.179201
   18  C  4  X    0.069234  -0.295023  -0.207770  -0.352490  -0.155661
   19  C  4  Y   -0.050632  -0.196400  -0.039925   0.139713   0.519265
   20  C  4  Z   -0.000000   0.000000  -0.000000   0.000000   0.000000
   21  H  5  S    0.415466   0.025409   0.527895  -0.368791   0.252845
   22  H  6  S    0.415466   0.025409  -0.527895  -0.368791  -0.252845
   23  H  7  S   -0.415466   0.025409  -0.527895  -0.368791  -0.252845
   24  H  8  S   -0.415466   0.025409   0.527895  -0.368791   0.252845
   25  C  9  S    0.087304  -0.112021   0.015043   0.011187   0.057169
   26  C  9  S   -0.583875   0.782767  -0.084115  -0.073933  -0.433742
   27  C  9  X    0.003703   0.032921  -0.222737  -0.017349   0.189177
   28  C  9  Y   -0.009460   0.105133  -0.148724   0.499083   0.039817
   29  C  9  Z   -0.000000   0.000000  -0.000000   0.000000   0.000000
   30  C 10  S    0.087304  -0.112021  -0.015043   0.011187  -0.057169
   31  C 10  S   -0.583875   0.782767   0.084115  -0.073933   0.433742
   32  C 10  X   -0.003703  -0.032921  -0.222737   0.017349   0.189177
   33  C 10  Y   -0.009460   0.105133   0.148724   0.499083  -0.039817
   34  C 10  Z   -0.000000   0.000000  -0.000000   0.000000   0.000000
   35  C 11  S   -0.087304  -0.112021  -0.015043   0.011187  -0.057169
   36  C 11  S    0.583875   0.782767   0.084115  -0.073933   0.433742
   37  C 11  X   -0.003703   0.032921   0.222737  -0.017349  -0.189177
   38  C 11  Y   -0.009460  -0.105133  -0.148724  -0.499083   0.039817
   39  C 11  Z   -0.000000   0.000000  -0.000000   0.000000   0.000000
   40  C 12  S   -0.087304  -0.112021   0.015043   0.011187   0.057169
   41  C 12  S    0.583875   0.782767  -0.084115  -0.073933  -0.433742
   42  C 12  X    0.003703  -0.032921   0.222737   0.017349  -0.189177
   43  C 12  Y   -0.009460  -0.105133   0.148724  -0.499083  -0.039817
   44  C 12  Z   -0.000000   0.000000  -0.000000   0.000000   0.000000
   45  C 13  S   -0.078786   0.078492  -0.000000   0.024754   0.000000
   46  C 13  S    0.508788  -0.534468  -0.000000  -0.198950   0.000000
   47  C 13  X   -0.000000   0.000000  -0.051571   0.000000   0.619936
   48  C 13  Y   -0.096294   0.302906  -0.000000   0.015010   0.000000
   49  C 13  Z   -0.000000   0.000000  -0.000000   0.000000   0.000000
   50  C 14  S    0.078786   0.078492  -0.000000   0.024754   0.000000
   51  C 14  S   -0.508788  -0.534468  -0.000000  -0.198950   0.000000
   52  C 14  X   -0.000000   0.000000   0.051571   0.000000  -0.619936
   53  C 14  Y   -0.096294  -0.302906  -0.000000  -0.015010   0.000000
   54  C 14  Z   -0.000000   0.000000  -0.000000   0.000000   0.000000
   55  H 15  S    0.276135  -0.265495  -0.075671   0.438002   0.216464
   56  H 16  S    0.276135  -0.265495   0.075671   0.438002  -0.216464
   57  H 17  S   -0.276135  -0.265495   0.075671   0.438002  -0.216464
   58  H 18  S   -0.276135  -0.265495  -0.075671   0.438002   0.216464

                     51         52         53         54         55
                    0.8401     0.8579     0.9335     0.9405     1.0106
                     B3U        B2U        B3U        AG         B2U 
    1  C  1  S   -0.073190  -0.021513   0.012586   0.049346  -0.033300
    2  C  1  S    0.565404   0.166107  -0.105087  -0.415738   0.260737
    3  C  1  X   -0.205875   0.466195   0.313582   0.152453  -0.218458
    4  C  1  Y   -0.353689   0.192556  -0.009473   0.264993   0.633430
    5  C  1  Z    0.000000  -0.000000   0.000000   0.000000   0.000000
    6  C  2  S    0.073190  -0.021513  -0.012586   0.049346  -0.033300
    7  C  2  S   -0.565404   0.166107   0.105087  -0.415738   0.260737
    8  C  2  X   -0.205875  -0.466195   0.313582  -0.152453   0.218458
    9  C  2  Y    0.353689   0.192556   0.009473   0.264993   0.633430
   10  C  2  Z    0.000000  -0.000000   0.000000   0.000000   0.000000
   11  C  3  S   -0.073190   0.021513   0.012586   0.049346   0.033300
   12  C  3  S    0.565404  -0.166107  -0.105087  -0.415738  -0.260737
   13  C  3  X   -0.205875  -0.466195   0.313582   0.152453   0.218458
   14  C  3  Y    0.353689   0.192556   0.009473  -0.264993   0.633430
   15  C  3  Z    0.000000  -0.000000   0.000000   0.000000   0.000000
   16  C  4  S    0.073190   0.021513  -0.012586   0.049346   0.033300
   17  C  4  S   -0.565404  -0.166107   0.105087  -0.415738  -0.260737
   18  C  4  X   -0.205875   0.466195   0.313582  -0.152453  -0.218458
   19  C  4  Y   -0.353689   0.192556  -0.009473  -0.264993   0.633430
   20  C  4  Z    0.000000  -0.000000   0.000000   0.000000   0.000000
   21  H  5  S   -0.219613   0.309044  -0.166650   0.141987  -0.258080
   22  H  6  S    0.219613   0.309044   0.166650   0.141987  -0.258080
   23  H  7  S   -0.219613  -0.309044  -0.166650   0.141987   0.258080
   24  H  8  S    0.219613  -0.309044   0.166650   0.141987   0.258080
   25  C  9  S    0.056940  -0.059934  -0.031463   0.009588   0.015659
   26  C  9  S   -0.426764   0.475486   0.253363  -0.061514  -0.104423
   27  C  9  X   -0.513567   0.044758  -0.057566   0.632029   0.283466
   28  C  9  Y   -0.028852  -0.081728   0.602180   0.107382  -0.325517
   29  C  9  Z    0.000000  -0.000000   0.000000   0.000000   0.000000
   30  C 10  S   -0.056940  -0.059934   0.031463   0.009588   0.015659
   31  C 10  S    0.426764   0.475486  -0.253363  -0.061514  -0.104423
   32  C 10  X   -0.513567  -0.044758  -0.057566  -0.632029  -0.283466
   33  C 10  Y    0.028852  -0.081728  -0.602180   0.107382  -0.325517
   34  C 10  Z    0.000000  -0.000000   0.000000   0.000000   0.000000
   35  C 11  S    0.056940   0.059934  -0.031463   0.009588  -0.015659
   36  C 11  S   -0.426764  -0.475486   0.253363  -0.061514   0.104423
   37  C 11  X   -0.513567  -0.044758  -0.057566   0.632029  -0.283466
   38  C 11  Y    0.028852  -0.081728  -0.602180  -0.107382  -0.325517
   39  C 11  Z    0.000000  -0.000000   0.000000   0.000000   0.000000
   40  C 12  S   -0.056940   0.059934   0.031463   0.009588  -0.015659
   41  C 12  S    0.426764  -0.475486  -0.253363  -0.061514   0.104423
   42  C 12  X   -0.513567   0.044758  -0.057566  -0.632029   0.283466
   43  C 12  Y   -0.028852  -0.081728   0.602180  -0.107382  -0.325517
   44  C 12  Z    0.000000  -0.000000   0.000000   0.000000   0.000000
   45  C 13  S    0.000000  -0.028448   0.000000  -0.077402  -0.068353
   46  C 13  S    0.000000   0.231864   0.000000   0.617536   0.532253
   47  C 13  X   -0.120225  -0.000000  -0.540191   0.000000   0.000000
   48  C 13  Y    0.000000   0.658716   0.000000  -0.443347  -0.152695
   49  C 13  Z    0.000000  -0.000000   0.000000   0.000000   0.000000
   50  C 14  S    0.000000   0.028448   0.000000  -0.077402   0.068353
   51  C 14  S    0.000000  -0.231864   0.000000   0.617536  -0.532253
   52  C 14  X   -0.120225  -0.000000  -0.540191   0.000000   0.000000
   53  C 14  Y    0.000000   0.658716   0.000000   0.443347  -0.152695
   54  C 14  Z    0.000000  -0.000000   0.000000   0.000000   0.000000
   55  H 15  S    0.171404  -0.232232   0.362330   0.107515  -0.175900
   56  H 16  S   -0.171404  -0.232232  -0.362330   0.107515  -0.175900
   57  H 17  S    0.171404   0.232232   0.362330   0.107515   0.175900
   58  H 18  S   -0.171404   0.232232  -0.362330   0.107515   0.175900

                     56         57         58
                    1.0129     1.1341     1.1547
                     B1G        B2U        B1G 
    1  C  1  S    0.013363  -0.030058  -0.036674
    2  C  1  S   -0.110783   0.260140   0.301808
    3  C  1  X    0.516179  -0.464911  -0.374326
    4  C  1  Y    0.440672  -0.185610   0.292670
    5  C  1  Z    0.000000   0.000000   0.000000
    6  C  2  S   -0.013363  -0.030058   0.036674
    7  C  2  S    0.110783   0.260140  -0.301808
    8  C  2  X    0.516179   0.464911  -0.374326
    9  C  2  Y   -0.440672  -0.185610  -0.292670
   10  C  2  Z    0.000000   0.000000   0.000000
   11  C  3  S   -0.013363   0.030058   0.036674
   12  C  3  S    0.110783  -0.260140  -0.301808
   13  C  3  X   -0.516179   0.464911   0.374326
   14  C  3  Y    0.440672  -0.185610   0.292670
[...]
 AND/OR CR-CCL COUPLED-CLUSTER OPTIONS:
 P. PIECUCH AND M. WLOCH,
   J. CHEM. PHYS. 123, 224105/1-10 (2005).
 M. WLOCH, J.R. GOUR, AND P. PIECUCH,
   J. PHYS. CHEM. A, 111, 11359-11382 (2007).

 THE FOLLOWING PAPERS SHOULD BE CITED IF USING THE EA-EOMCC OR IP-EOMCC OPTIONS:
 J. R. GOUR, P. PIECUCH, AND M. WLOCH,
   J. CHEM. PHYS. 123, 134113/1-14 (2005).
 J. R. GOUR AND P. PIECUCH,
   J. CHEM. PHYS. 125, 234107/1-17 (2006).

 THE FOLLOWING PAPERS SHOULD BE CITED IF USING THE CCSDt AND CC(t;3) OPTIONS:
 J. SHEN AND P. PIECUCH, CHEM. PHYS. 401, 180-202 (2012);
 J. SHEN AND P. PIECUCH, J. CHEM. PHYS. 136, 144104-1 - 144104-16 (2012).
 THE FOLLOWING PAPERS SHOULD BE CITED IF USING THE DEA-EOMCC OR DIP-EOMCC OPTIONS:
 J. SHEN AND P. PIECUCH,
   J. CHEM. PHYS. 138, 194102/1-16 (2013);
 J. SHEN AND P. PIECUCH,
   MOL. PHYS. 112, 868-885 (2014);
 A.O. AJALA, J. SHEN, AND P. PIECUCH,
   J. PHYS. CHEM. A 121, 3469-3485 (2017).

 IN ADDITION, THE USE OF THE ACP(1) ARRAY IN $CCINP
 SHOULD REFERENCE
 I. MAGOULAS, J. SHEN, AND P. PIECUCH, MOL. PHYS. 120, E2057365 (2022).
 ***************************************************************

 ROHF REFERENCE STATE WILL BE USED, MULTIPLICITY=  1

              ------------------------------
              OPEN SHELL CC INPUT PARAMETERS
              ------------------------------
     CC SPIN MULTIPLICITY (MULT IN $CCINP)    =    1
     IMPLYING NO. OF OCCUP. ALPHA =   24, PLUS  10 FROZEN CORES
              NO. OF OCCUP.  BETA =   24, PLUS  10 FROZEN CORES
              NO. OF VIRT.  ALPHA =   24
              NO. OF VIRT.   BETA =   24
     MAX.NO. OF CC AND LAMBDA ITERS (MAXCC)   =  800
     CC AND LAMBDA CONVERGENCE (FROM ICONV)   =   1.000E-07
     CC EQUATION RESTART OPTION (KREST)       =    0
     CC DIIS MICROITERATIONS (KMICRO)         =    6
     LAMDA EQUATION RESTART OPTION (LREST)    =    0
     LAMBDA DIIS MICROITERATIONS (LMICRO)     =    5
     MM(2,3) CODE SELECTION (IOPMET)          =    0
     OCCUPIED ACTIVE ALPHA ORBITALS           =    0
     OCCUPIED ACTIVE BETA ORBITALS (NACTO)    =    0
     UNOCCUPIED ACTIVE ALPHA ORBITALS (NACTU) =   -1
     UNOCCUPIED ACTIVE BETA ORBITALS          =   -1
     SHIFT ENERGY (SHIFT)                     =   0.000E+00

 MEMORY NEEDED BY FOCK PREPARATION   :        16084 WORDS
 MEMORY NEEDED BY INT. PASS 1        :      4674864 WORDS
 MEMORY NEEDED BY INT. PASS 2        :      1357104 WORDS
 MEMORY NEEDED BY INT. PASS 3,...,  3:      1025328 WORDS
 PASS=  1, WILL PROCESS [OO|OO], [VO|OO], [VV|OO], AND [VO|VO] INTEGRALS.
           WROTE         331776 WORDS OF <OA OA||OA OA> INTS TO FILE  74
           WROTE         331776 WORDS OF <OB OB||OB OB> INTS TO FILE  75
           WROTE         331776 WORDS OF <OA OB||OA OB> INTS TO FILE  76
           WROTE         331776 WORDS OF <VA OA||OA OA> INTS TO FILE  77
           WROTE         331776 WORDS OF <VB OB||OB OB> INTS TO FILE  78
           WROTE         331776 WORDS OF <VA OB||OA OB> INTS TO FILE  79
           WROTE         331776 WORDS OF <OA VB||OA OB> INTS TO FILE  80
           WROTE         331776 WORDS OF (VA OA  VA OA) INTS TO FILE  81
           WROTE         331776 WORDS OF (VB OB  VB OB) INTS TO FILE  82
           WROTE         331776 WORDS OF (VA OB  VA OB) INTS TO FILE  83
           WROTE         331776 WORDS OF <VA OA||VA OA> INTS TO FILE  84
           WROTE         331776 WORDS OF <VB OB||VB OB> INTS TO FILE  85
           WROTE         331776 WORDS OF <VA OB||VA OB> INTS TO FILE  86
           WROTE         331776 WORDS OF <OA VB||OA VB> INTS TO FILE  87
 PASS=  2, WILL PROCESS [VV|VO] INTEGRALS.
           WROTE         331776 WORDS OF <VA VA||OA VA> INTS TO FILE  88
           WROTE         331776 WORDS OF <VB VB||OB VB> INTS TO FILE  89
           WROTE         331776 WORDS OF <VA VB||OA VB> INTS TO FILE  90
           WROTE         331776 WORDS OF <VA VB||VA OB> INTS TO FILE  91
 PASSES  3 TO  3 WILL PROCESS [VV|VV] INTEGRALS.
 PASS=  3, DOING MN-MX ALPHA VIRTUAL=  25-  48, MN-MX BETA VIRTUAL=  25-  48
           WROTE         331776 WORDS OF <VA VA||VA VA> INTS TO FILE  92
           WROTE         331776 WORDS OF <VB VB||VB VB> INTS TO FILE  92
           WROTE         331776 WORDS OF <VA VB||VA VB> INTS TO FILE  92
 ....... DONE WITH CC INTEGRAL PREPARATION .......
 STEP CPU TIME =     0.12 TOTAL CPU TIME =          1.5 (      0.0 MIN)
 TOTAL WALL CLOCK TIME=          1.3 SECONDS, CPU UTILIZATION IS   116.12%

        ------------------------
        OPEN-SHELL CCSDt PROGRAM
        ------------------------
 MEMORY NEEDED BY CCSDt   :            5 MWORDS

     WITH YOUR CHOICES OF INPUT PARAMETERS,

         CCSDt = CCSD

      BEGINNING CCSDt ITERATIONS

 ITER      E (CORR.)             dE
 ------------------------------------
    1  -0.5506061512   0.5506061512
    2  -0.6566068845   0.1060007333
    3  -0.6849093829   0.0283024983
    4  -0.6948139497   0.0099045668
    5  -0.6993755819   0.0045616322
    6  -0.7017724315   0.0023968496
    7  -0.7031638548   0.0013914234
    8  -0.7040048653   0.0008410105
    9  -0.7045322042   0.0005273388
  DIIS MICROCYCLE    1
   10  -0.7054846600   0.0009524559
   11  -0.7055093438   0.0000246837
   12  -0.7055145723   0.0000052285
   13  -0.7055174996   0.0000029273
   14  -0.7055192410   0.0000017414
  DIIS MICROCYCLE    2
   15  -0.7055216990   0.0000024581
   16  -0.7055223601   0.0000006611
   17  -0.7055225228   0.0000001627
   18  -0.7055226834   0.0000001606
   19  -0.7055227694   0.0000000860
  DIIS MICROCYCLE    3
   20  -0.7055230665   0.0000002971
   21  -0.7055229649  -0.0000001016
   22  -0.7055229415  -0.0000000233
   23  -0.7055229385  -0.0000000030
   24  -0.7055229375  -0.0000000011
  DIIS MICROCYCLE    4
   25  -0.7055229361  -0.0000000014
   26  -0.7055229378   0.0000000017
   27  -0.7055229379   0.0000000001
   28  -0.7055229378  -0.0000000001
   29  -0.7055229376  -0.0000000002
  DIIS MICROCYCLE    5
   30  -0.7055229374  -0.0000000002
 ------------------------------------

     THE CC ITERATIONS HAVE CONVERGED

                         SUMMARY OF CCSDt RESULTS

     REFERENCE ENERGY:     -382.4086392985
         CCSDt ENERGY:     -383.1141622359   CORR. E=  -0.7055229374


     WITH YOUR CHOICES OF INPUT PARAMETERS,

         CCSDt = CCSD

 THE LARGEST T1 AND T2 AMPLITUDES ARE
 T2=  -0.0430653107 FOR IA,JA -> AA, BA =  32  33  36  37
 T2=  -0.0610782658 FOR IA,JA -> AA, BA =  33  34  35  36
 T2=  -0.0430653107 FOR IB,JB -> AB, BB =  32  33  36  37
 T2=  -0.0610782658 FOR IB,JB -> AB, BB =  33  34  35  36
 T2=  -0.0302901221 FOR IA,JB -> AA, BB =  27  27  39  39
 T2=   0.0263003014 FOR IA,JB -> AA, BB =  27  31  38  39
 T2=   0.0283418598 FOR IA,JB -> AA, BB =  27  32  35  38
 T2=  -0.0379614590 FOR IA,JB -> AA, BB =  27  32  37  39
 T2=  -0.0268867864 FOR IA,JB -> AA, BB =  27  32  39  37
 T2=  -0.0472800634 FOR IA,JB -> AA, BB =  27  33  36  39
 T2=  -0.0324555324 FOR IA,JB -> AA, BB =  27  33  39  36
 T2=  -0.0444418207 FOR IA,JB -> AA, BB =  27  34  35  39
 T2=   0.0271058912 FOR IA,JB -> AA, BB =  27  34  37  38
 T2=  -0.0273600616 FOR IA,JB -> AA, BB =  27  34  39  35
 T2=   0.0263003014 FOR IA,JB -> AA, BB =  31  27  39  38
 T2=  -0.0334424736 FOR IA,JB -> AA, BB =  31  31  35  35
 T2=  -0.0317240293 FOR IA,JB -> AA, BB =  31  31  36  36
 T2=  -0.0514943661 FOR IA,JB -> AA, BB =  31  31  38  38
 T2=  -0.0275259001 FOR IA,JB -> AA, BB =  31  32  35  36
 T2=  -0.0265269229 FOR IA,JB -> AA, BB =  31  32  35  39
 T2=   0.0395552816 FOR IA,JB -> AA, BB =  31  32  37  38
 T2=   0.0250873476 FOR IA,JB -> AA, BB =  31  32  38  37
 T2=   0.0555359332 FOR IA,JB -> AA, BB =  31  33  36  38
 T2=   0.0395136475 FOR IA,JB -> AA, BB =  31  33  38  36
 T2=   0.0655977677 FOR IA,JB -> AA, BB =  31  34  35  38
 T2=  -0.0266868754 FOR IA,JB -> AA, BB =  31  34  37  39
 T2=   0.0424854277 FOR IA,JB -> AA, BB =  31  34  38  35
 T2=  -0.0268867864 FOR IA,JB -> AA, BB =  32  27  37  39
 T2=   0.0283418598 FOR IA,JB -> AA, BB =  32  27  38  35
 T2=  -0.0379614590 FOR IA,JB -> AA, BB =  32  27  39  37
 T2=  -0.0275259001 FOR IA,JB -> AA, BB =  32  31  36  35
 T2=   0.0250873476 FOR IA,JB -> AA, BB =  32  31  37  38
 T2=   0.0395552816 FOR IA,JB -> AA, BB =  32  31  38  37
 T2=  -0.0265269229 FOR IA,JB -> AA, BB =  32  31  39  35
 T2=  -0.0585016911 FOR IA,JB -> AA, BB =  32  32  35  35
 T2=  -0.0674861494 FOR IA,JB -> AA, BB =  32  32  37  37
 T2=  -0.0627270024 FOR IA,JB -> AA, BB =  32  33  36  37
 T2=  -0.0801316603 FOR IA,JB -> AA, BB =  32  34  35  37
 T2=  -0.0719586285 FOR IA,JB -> AA, BB =  32  34  37  35
 T2=  -0.0324555324 FOR IA,JB -> AA, BB =  33  27  36  39
 T2=  -0.0472800634 FOR IA,JB -> AA, BB =  33  27  39  36
 T2=   0.0395136475 FOR IA,JB -> AA, BB =  33  31  36  38
 T2=   0.0555359332 FOR IA,JB -> AA, BB =  33  31  38  36
 T2=  -0.0627270024 FOR IA,JB -> AA, BB =  33  32  37  36
 T2=  -0.1168957798 FOR IA,JB -> AA, BB =  33  33  36  36
 T2=  -0.0295094965 FOR IA,JB -> AA, BB =  33  33  38  38
 T2=  -0.0811969735 FOR IA,JB -> AA, BB =  33  34  35  36
 T2=   0.0256381117 FOR IA,JB -> AA, BB =  33  34  37  38
 T2=  -0.0273600616 FOR IA,JB -> AA, BB =  34  27  35  39
 T2=   0.0271058912 FOR IA,JB -> AA, BB =  34  27  38  37
 T2=  -0.0444418207 FOR IA,JB -> AA, BB =  34  27  39  35
 T2=   0.0424854277 FOR IA,JB -> AA, BB =  34  31  35  38
 T2=   0.0655977677 FOR IA,JB -> AA, BB =  34  31  38  35
 T2=  -0.0266868754 FOR IA,JB -> AA, BB =  34  31  39  37
 T2=  -0.0719586285 FOR IA,JB -> AA, BB =  34  32  35  37
 T2=  -0.0801316603 FOR IA,JB -> AA, BB =  34  32  37  35
 T2=  -0.0811969735 FOR IA,JB -> AA, BB =  34  33  36  35
 T2=   0.0256381117 FOR IA,JB -> AA, BB =  34  33  38  37
 T2=  -0.1355790633 FOR IA,JB -> AA, BB =  34  34  35  35
 T2=  -0.0566432976 FOR IA,JB -> AA, BB =  34  34  37  37
 T2=  -0.0316237188 FOR IA,JB -> AA, BB =  34  34  38  38
 ....... DONE WITH CCSDt AMPLITUDE ITERATIONS .......
 STEP CPU TIME =   102.47 TOTAL CPU TIME =        104.0 (      1.7 MIN)
 TOTAL WALL CLOCK TIME=         36.9 SECONDS, CPU UTILIZATION IS   281.35%

        -------------------------------------
        OPEN-SHELL EQUATION-OF-MOTION PROGRAM
        -------------------------------------
 MEMORY NEEDED BY ONEHBAR :      3985920 WORDS
 MEMORY NEEDED BY TWOHBAR :      4992192 WORDS
 ....... DONE WITH MATRIX ELEMENTS OF HBAR .......
 STEP CPU TIME =     5.57 TOTAL CPU TIME =        109.5 (      1.8 MIN)
 TOTAL WALL CLOCK TIME=         38.6 SECONDS, CPU UTILIZATION IS   283.62%

 MEMORY NEEDED BY OPENLEFT:      3669168 WORDS

      BEGINNING LAMBDA VECTOR ITERATIONS
 ITERATION:     1    CONV:     0.041432909
 ITERATION:     2    CONV:     0.008496134
 ITERATION:     3    CONV:     0.003509513
 ITERATION:     4    CONV:     0.002088285
 ITERATION:     5    CONV:     0.001398231
      DOING DIIS EXTRAPOLATION (DIM.OF THE SPACE=  5)
 ITERATION:     6    CONV:     0.000725554
 ITERATION:     7    CONV:     0.000391839
 ITERATION:     8    CONV:     0.000256996
 ITERATION:     9    CONV:     0.000172916
 ITERATION:    10    CONV:     0.000121666
      DOING DIIS EXTRAPOLATION (DIM.OF THE SPACE=  5)
 ITERATION:    11    CONV:     0.000021489
 ITERATION:    12    CONV:     0.000008749
 ITERATION:    13    CONV:     0.000005070
 ITERATION:    14    CONV:     0.000003151
 ITERATION:    15    CONV:     0.000002101
      DOING DIIS EXTRAPOLATION (DIM.OF THE SPACE=  5)
 ITERATION:    16    CONV:     0.000000829
 ITERATION:    17    CONV:     0.000000469
 ITERATION:    18    CONV:     0.000000306
 ITERATION:    19    CONV:     0.000000210
 ITERATION:    20    CONV:     0.000000147
      DOING DIIS EXTRAPOLATION (DIM.OF THE SPACE=  5)
 ITERATION:    21    CONV:     0.000000033

 LAMBDA VECTOR ITERATIONS HAVE CONVERGED,
 THE LARGEST LA1 AND LA2 AMPLITUDES ARE
 LA2=  -0.0411351416 FOR IA,JA -> AA, BA =  32  33  36  37
 LA2=  -0.0550360067 FOR IA,JA -> AA, BA =  33  34  35  36
 LA2=  -0.0411351416 FOR IB,JB -> AB, BB =  32  33  36  37
 LA2=  -0.0550360067 FOR IB,JB -> AB, BB =  33  34  35  36
 LA2=  -0.0327708331 FOR IA,JB -> AA, BB =  27  27  39  39
 LA2=   0.0281720475 FOR IA,JB -> AA, BB =  27  31  38  39
 LA2=   0.0251454892 FOR IA,JB -> AA, BB =  27  32  35  38
 LA2=  -0.0386680070 FOR IA,JB -> AA, BB =  27  32  37  39
 LA2=  -0.0263561816 FOR IA,JB -> AA, BB =  27  32  39  37
 LA2=  -0.0473521549 FOR IA,JB -> AA, BB =  27  33  36  39
 LA2=  -0.0313082363 FOR IA,JB -> AA, BB =  27  33  39  36
 LA2=  -0.0449012848 FOR IA,JB -> AA, BB =  27  34  35  39
 LA2=  -0.0268599444 FOR IA,JB -> AA, BB =  27  34  39  35
 LA2=   0.0281720475 FOR IA,JB -> AA, BB =  31  27  39  38
 LA2=  -0.0280235036 FOR IA,JB -> AA, BB =  31  31  35  35
 LA2=  -0.0282016645 FOR IA,JB -> AA, BB =  31  31  36  36
 LA2=  -0.0539605030 FOR IA,JB -> AA, BB =  31  31  38  38
 LA2=   0.0412311667 FOR IA,JB -> AA, BB =  31  32  37  38
 LA2=   0.0253022812 FOR IA,JB -> AA, BB =  31  32  38  37
 LA2=   0.0558740541 FOR IA,JB -> AA, BB =  31  33  36  38
 LA2=   0.0384381546 FOR IA,JB -> AA, BB =  31  33  38  36
 LA2=   0.0641601713 FOR IA,JB -> AA, BB =  31  34  35  38
 LA2=   0.0402880964 FOR IA,JB -> AA, BB =  31  34  38  35
 LA2=  -0.0263561816 FOR IA,JB -> AA, BB =  32  27  37  39
 LA2=   0.0251454892 FOR IA,JB -> AA, BB =  32  27  38  35
 LA2=  -0.0386680070 FOR IA,JB -> AA, BB =  32  27  39  37
 LA2=   0.0253022812 FOR IA,JB -> AA, BB =  32  31  37  38
 LA2=   0.0412311667 FOR IA,JB -> AA, BB =  32  31  38  37
 LA2=  -0.0503653501 FOR IA,JB -> AA, BB =  32  32  35  35
 LA2=  -0.0706584075 FOR IA,JB -> AA, BB =  32  32  37  37
 LA2=  -0.0627975094 FOR IA,JB -> AA, BB =  32  33  36  37
 LA2=  -0.0784202227 FOR IA,JB -> AA, BB =  32  34  35  37
 LA2=  -0.0666395949 FOR IA,JB -> AA, BB =  32  34  37  35
 LA2=  -0.0313082363 FOR IA,JB -> AA, BB =  33  27  36  39
 LA2=  -0.0473521549 FOR IA,JB -> AA, BB =  33  27  39  36
 LA2=   0.0384381546 FOR IA,JB -> AA, BB =  33  31  36  38
 LA2=   0.0558740541 FOR IA,JB -> AA, BB =  33  31  38  36
 LA2=  -0.0627975094 FOR IA,JB -> AA, BB =  33  32  37  36
 LA2=  -0.1159785617 FOR IA,JB -> AA, BB =  33  33  36  36
 LA2=  -0.0263472772 FOR IA,JB -> AA, BB =  33  33  38  38
 LA2=  -0.0804658122 FOR IA,JB -> AA, BB =  33  34  35  36
 LA2=  -0.0254298051 FOR IA,JB -> AA, BB =  33  34  36  35
 LA2=  -0.0268599444 FOR IA,JB -> AA, BB =  34  27  35  39
 LA2=  -0.0449012848 FOR IA,JB -> AA, BB =  34  27  39  35
 LA2=   0.0402880964 FOR IA,JB -> AA, BB =  34  31  35  38
 LA2=   0.0641601713 FOR IA,JB -> AA, BB =  34  31  38  35
 LA2=  -0.0666395949 FOR IA,JB -> AA, BB =  34  32  35  37
 LA2=  -0.0784202227 FOR IA,JB -> AA, BB =  34  32  37  35
 LA2=  -0.0254298051 FOR IA,JB -> AA, BB =  34  33  35  36
 LA2=  -0.0804658122 FOR IA,JB -> AA, BB =  34  33  36  35
 LA2=  -0.1328794274 FOR IA,JB -> AA, BB =  34  34  35  35
 LA2=  -0.0488799256 FOR IA,JB -> AA, BB =  34  34  37  37
 LA2=  -0.0266941295 FOR IA,JB -> AA, BB =  34  34  38  38
 ....... DONE WITH LAMBDA AMPLITUDE ITERATIONS .......
 STEP CPU TIME =    40.71 TOTAL CPU TIME =        150.2 (      2.5 MIN)
 TOTAL WALL CLOCK TIME=         50.8 SECONDS, CPU UTILIZATION IS   295.51%

        -----------------------------
        OPEN-SHELL CC(t;3) PROGRAM
        -----------------------------
         AVAILABLE MEMORY :    499999903 WORDS
 MEMORY NEEDED BY MM(2,3) :      7793280 WORDS, CODE=HIGH MEMORY VERSION (1)
 CHOOSING THE -HIGH MEMORY VERSION- FOR OPEN SHELL MM(2,3)

 MAIN RESULTS: CC(t;3) CALCULATIONS

 GROUND STATE CC(t;3),A CORRECTION -0.013948, TOTAL E=     -383.1281104643
 GROUND STATE CC(t;3),B CORRECTION -0.012837, TOTAL E=     -383.1269993455
 GROUND STATE CC(t;3),C CORRECTION -0.016676, TOTAL E=     -383.1308386440
 GROUND STATE CC(t;3),D CORRECTION -0.016627, TOTAL E=     -383.1307891268

 CC(t;3),D ENERGY IS IDENTICAL TO THE COMPLETE CC(t;3) ENERGY

               SUMMARY OF CC(t;3) CALCULATIONS
 CCSDt         E=     -383.1141622359   CORR. E=  -0.7055229374
 CC(t;3),A     E=     -383.1281104643   CORR. E=  -0.7194711658
 CC(t;3)       E=     -383.1307891268   CORR. E=  -0.7221498283

 THE MOST ACCURATE ENERGETICS IS PROVIDED BY CC(t;3) = CC(t;3),D

 ..... DONE WITH CC NON-ITERATIVE TRIPLES CORRECTIONS .....
 STEP CPU TIME =    94.34 TOTAL CPU TIME =        244.6 (      4.1 MIN)
 TOTAL WALL CLOCK TIME=         74.5 SECONDS, CPU UTILIZATION IS   328.23%
              7793376  WORDS OF DYNAMIC MEMORY USED
 EXECUTION OF GAMESS TERMINATED NORMALLY 17:46:58 15-DEC-2023    
 DDI: 263640 bytes (0.3 MB / 0 MWords) used by master data server.

 ----------------------------------------
 CPU timing information for all processes
 ========================================
 0: 234.655 + 9.929 = 244.585
 ----------------------------------------
 ddikick.x: exited gracefully.
----- accounting info -----
Files used on the master node coupled.cem.msu.edu were:
-rw-r--r-- 1 dengtia4 piecuch      928 Dec 15 17:45 /scratch/dengtia4/gamess/../sto6g.inp/sto6g.F05
-rw-r--r-- 1 dengtia4 piecuch  2520224 Dec 15 17:45 /scratch/dengtia4/gamess/../sto6g.inp/sto6g.F08
-rw-r--r-- 1 dengtia4 piecuch  1269528 Dec 15 17:45 /scratch/dengtia4/gamess/../sto6g.inp/sto6g.F09
-rw-r--r-- 1 dengtia4 piecuch  1897760 Dec 15 17:46 /scratch/dengtia4/gamess/../sto6g.inp/sto6g.F10
-rw-r--r-- 1 dengtia4 piecuch 26542080 Dec 15 17:46 /scratch/dengtia4/gamess/../sto6g.inp/sto6g.F70
-rw-r--r-- 1 dengtia4 piecuch 79626240 Dec 15 17:46 /scratch/dengtia4/gamess/../sto6g.inp/sto6g.F71
-rw-r--r-- 1 dengtia4 piecuch    46080 Dec 15 17:45 /scratch/dengtia4/gamess/../sto6g.inp/sto6g.F72
-rw-r--r-- 1 dengtia4 piecuch        0 Dec 15 13:46 /scratch/dengtia4/gamess/../sto6g.inp/sto6g.F73
-rw-r--r-- 1 dengtia4 piecuch  2654208 Dec 15 17:45 /scratch/dengtia4/gamess/../sto6g.inp/sto6g.F74
-rw-r--r-- 1 dengtia4 piecuch  2654208 Dec 15 17:45 /scratch/dengtia4/gamess/../sto6g.inp/sto6g.F75
-rw-r--r-- 1 dengtia4 piecuch  2654208 Dec 15 17:45 /scratch/dengtia4/gamess/../sto6g.inp/sto6g.F76
-rw-r--r-- 1 dengtia4 piecuch  2654208 Dec 15 17:45 /scratch/dengtia4/gamess/../sto6g.inp/sto6g.F77
-rw-r--r-- 1 dengtia4 piecuch  2654208 Dec 15 17:45 /scratch/dengtia4/gamess/../sto6g.inp/sto6g.F78
-rw-r--r-- 1 dengtia4 piecuch  2654208 Dec 15 17:45 /scratch/dengtia4/gamess/../sto6g.inp/sto6g.F79
-rw-r--r-- 1 dengtia4 piecuch  2654208 Dec 15 17:45 /scratch/dengtia4/gamess/../sto6g.inp/sto6g.F80
-rw-r--r-- 1 dengtia4 piecuch  2654208 Dec 15 17:45 /scratch/dengtia4/gamess/../sto6g.inp/sto6g.F81
-rw-r--r-- 1 dengtia4 piecuch  2654208 Dec 15 17:45 /scratch/dengtia4/gamess/../sto6g.inp/sto6g.F82
-rw-r--r-- 1 dengtia4 piecuch  2654208 Dec 15 17:45 /scratch/dengtia4/gamess/../sto6g.inp/sto6g.F83
-rw-r--r-- 1 dengtia4 piecuch  2654208 Dec 15 17:45 /scratch/dengtia4/gamess/../sto6g.inp/sto6g.F84
-rw-r--r-- 1 dengtia4 piecuch  2654208 Dec 15 17:45 /scratch/dengtia4/gamess/../sto6g.inp/sto6g.F85
-rw-r--r-- 1 dengtia4 piecuch  2654208 Dec 15 17:45 /scratch/dengtia4/gamess/../sto6g.inp/sto6g.F86
-rw-r--r-- 1 dengtia4 piecuch  2654208 Dec 15 17:45 /scratch/dengtia4/gamess/../sto6g.inp/sto6g.F87
-rw-r--r-- 1 dengtia4 piecuch  2654208 Dec 15 17:45 /scratch/dengtia4/gamess/../sto6g.inp/sto6g.F88
-rw-r--r-- 1 dengtia4 piecuch  2654208 Dec 15 17:45 /scratch/dengtia4/gamess/../sto6g.inp/sto6g.F89
-rw-r--r-- 1 dengtia4 piecuch  2654208 Dec 15 17:45 /scratch/dengtia4/gamess/../sto6g.inp/sto6g.F90
-rw-r--r-- 1 dengtia4 piecuch  2654208 Dec 15 17:45 /scratch/dengtia4/gamess/../sto6g.inp/sto6g.F91
-rw-r--r-- 1 dengtia4 piecuch  7962624 Dec 15 17:45 /scratch/dengtia4/gamess/../sto6g.inp/sto6g.F92
-rw-r--r-- 1 dengtia4 piecuch 45121536 Dec 15 17:46 /scratch/dengtia4/gamess/../sto6g.inp/sto6g.F93
-rw-r--r-- 1 dengtia4 piecuch 37158912 Dec 15 17:46 /scratch/dengtia4/gamess/../sto6g.inp/sto6g.F94
-rw-r--r-- 1 dengtia4 piecuch  7962624 Dec 15 17:46 /scratch/dengtia4/gamess/../sto6g.inp/sto6g.F95
-rw-r--r-- 1 dengtia4 piecuch  7971944 Dec 15 17:46 /scratch/dengtia4/gamess/../sto6g.inp/sto6g.MOE
Fri Dec 15 17:46:59 EST 2023
0.184u 0.079s 1:15.84 0.3%	0+0k 0+160io 0pf+0w
